<?xml version="1.0" ?>
<VTKFile byte_order="LittleEndian" type="UnstructuredGrid" version="0.1">
<UnstructuredGrid>
<Piece NumberOfCells="0" NumberOfPoints="29">
<Points>
<DataArray NumberOfComponents="3" format="ascii" type="Float32">21.28953578432813 1.4 2 25.710912076580438 3.6147303537029649 2 45.85094418510193 1.4 2 54.071267056562114 1.4 2 59.597170720466238 1.4 2 14.318245118833214 3.8334805141629715 2 19.159173989755303 6.4633336802488257 2 43.108298282243013 1.4 2 47.121074113416356 3.8747560543415855 2 51.332150073865321 1.4 2 60.925859339420313 3.8201966786289416 2 63.717951905433459 3.8538574657974789 2 98.414816179021955 2.3680771645615484 2 12.886768927887053 1.4 2 18.409763231757267 1.4 2 24.000565626249667 1.4 2 48.601292764930655 1.4 2 55.500556070921903 3.8359871323019212 2 56.822200009897699 1.4 2 93.012280111570618 1.4 2 15.741722592627978 1.4 2 19.853580239583131 3.8310787518222322 2 27.419195748580137 1.4 2 40.382178142139892 1.4 2 49.91724757891393 3.8371276211215357 2 52.69515664601996 3.8255910282100998 2 62.271003283463692 1.4 2 65.036386479245024 1.4 2 95.791565394739308 1.4 2 </DataArray>
</Points>
<Cells>
<DataArray Name="connectivity" format="ascii" type="Int32">0</DataArray>
<DataArray Name="offsets" format="ascii" type="Int32">0</DataArray>
<DataArray Name="types" format="ascii" type="UInt8">1</DataArray>
</Cells>
<PointData>
<DataArray Name="Points" NumberOfComponents="3" format="ascii" type="Float32">21.28953578432813 1.4 2 25.710912076580438 3.6147303537029649 2 45.85094418510193 1.4 2 54.071267056562114 1.4 2 59.597170720466238 1.4 2 14.318245118833214 3.8334805141629715 2 19.159173989755303 6.4633336802488257 2 43.108298282243013 1.4 2 47.121074113416356 3.8747560543415855 2 51.332150073865321 1.4 2 60.925859339420313 3.8201966786289416 2 63.717951905433459 3.8538574657974789 2 98.414816179021955 2.3680771645615484 2 12.886768927887053 1.4 2 18.409763231757267 1.4 2 24.000565626249667 1.4 2 48.601292764930655 1.4 2 55.500556070921903 3.8359871323019212 2 56.822200009897699 1.4 2 93.012280111570618 1.4 2 15.741722592627978 1.4 2 19.853580239583131 3.8310787518222322 2 27.419195748580137 1.4 2 40.382178142139892 1.4 2 49.91724757891393 3.8371276211215357 2 52.69515664601996 3.8255910282100998 2 62.271003283463692 1.4 2 65.036386479245024 1.4 2 95.791565394739308 1.4 2 </DataArray>
<DataArray Name="forces" NumberOfComponents="3" format="ascii" type="Float32">0.048781567153298191 -0.043933935925875869 0.0 0.0068597057829329552 0.054013192930776728 0.0 -0.0088841527116867297 -0.022968827832280422 0.0 -0.021736230941477787 -0.026469864294431197 0.0 0.039468348616491011 -0.0069734225812772771 0.0 -0.0082567051562989942 0.049272254330304535 0.0 -0.0050648232151990534 0.020046626584530415 0.0 -0.019582832434380748 0.0 0.0 0.011522105045145047 0.022968827832280422 0.0 -0.0089425730196783324 -0.026185472866822494 0.0 -0.0096925492529728804 0.026768528916089569 0.0 -0.01376114501551153 0.031115773253692899 0.0 0.013625048533102733 0.0052161545837174266 0.0 -0.036541826233633772 -0.01576637429908645 0.0 -0.045386421250155115 -0.044813181485198375 0.0 -0.0067773497522514055 -0.031546002358508775 0.0 0.0057638611165058296 -0.02299757263416392 0.0 0.014705714893477769 0.04454954540607451 0.0 -0.010990446878421503 -0.028328631182088275 0.0 0.0047591793726462842 -0.011846732931689781 0.0 0.040677977826271264 -0.032149021849206968 0.0 0.0055378883199984179 0.068700490826543836 0.0 0.0044722881328333464 -0.021446243930843208 0.0 -0.0021250146719777388 -0.047095193021107644 0.0 0.0060213851333738178 0.023062775119612338 0.0 -0.0061242198475100484 0.036369220451819034 0.0 -0.022840707429931904 -0.019820695447644313 0.0 0.012746845584653332 -0.031090184140860878 0.0 -0.00349253080562981 -0.0052161545837174266 0.0 </DataArray>
<DataArray Name="radii" format="ascii" type="Float32">1.4 1.4 1.4 1.4 1.4 1.4 1.4 1.4 1.4 1.4 1.4 1.4 1.4 1.4 1.4 1.4 1.4 1.4 1.4 1.4 1.4 1.4 1.4 1.4 1.4 1.4 1.4 1.4 1.4 </DataArray>
</PointData>
<CellData/>
</Piece>
</UnstructuredGrid>
</VTKFile>
