<?xml version="1.0" ?>
<VTKFile byte_order="LittleEndian" type="UnstructuredGrid" version="0.1">
<UnstructuredGrid>
<Piece NumberOfCells="0" NumberOfPoints="269">
<Points>
<DataArray NumberOfComponents="3" format="ascii" type="Float32">0 0 0 12.48305468510153 1.2 2 23.62207344281677 1 2 24.651829943879122 7.9092301619131193 2 38.412563713267247 7.4780431570406529 2 42.081345336985493 1 2 62.162193495071328 4.1616760030925093 2 65.352239385666834 3.2818984830874318 2 96.095290509870367 7.7197693690354248 2 11.39305210778361 6.1005626554587424 2 16.83140056125691 6.3463979759457079 2 28.510329030646442 1.2 2 42.597866174335458 2.4682005875566122 2 41.954061408228867 6.8553259943741915 2 63.85190098812997 7.4147192461607974 2 67.229312063609939 9.7244332921132504 2 98.6 7.2894577684706485 2 13.564523803054803 2.8227892518682958 2 15.572718923685306 3.6254429634941236 2 22.835862069447529 4.1075995016696716 2 39.547550965380829 1 2 44.136527200069089 2.4691488461103015 2 59.281345701737081 1.6500654111410888 2 65.782989477623715 1.4 2 99.0 9.7061698811376047 2 15.115936675302718 5.4641441810453841 2 23.992764203110855 9.9980007348111286 2 27.787239381284536 4.5326423868868009 2 40.487675069013591 1.4 2 43.807570802181033 6.8103270740014885 2 63.422305885150728 3.0124924331984251 2 64.685294881710604 1 2 96.940863812858723 1.2 2 20.607147188309249 1 2 25.920999580097121 2.9976582245954395 2 41.05402019093372 2.5934919007444659 2 61.693583032424335 1 2 13.953258479376574 4.3116720149880692 2 38.901298058587237 5.2199151675591624 2 43.348804249859427 2.2164346238278863 2 45.679412757462174 2.9018056316074872 2 65.006848940763419 7.6262190658493969 2 99.0 4.9649340435974949 2 11.742650408462985 4.9782209638380071 2 16.222615450180712 3.0668732654737347 2 24.389094472290569 2.9732568415101301 2 45.298687992996356 4.4272730341168485 2 59.450829940498309 4.3901769420506387 2 60.710030683818253 6.0027128905845908 2 16.618759770768925 1.4 2 22.49520185349769 2.3946368686292754 2 27.700224923985147 3.6858358387243428 2 39.559851995162681 7.0726432991722756 2 64.419941433505997 5.6473800594858874 2 66.106879755453775 5.7499090543855971 2 99.0 3.0739558062617238 2 22.467249670549844 1.2 2 43.166133748486409 1 2 63.624674627938518 4.1411057462566658 2 19.294837928144748 3.5908170826402963 2 41.230245587617119 6.6205597567788477 2 40.902466612369771 9.6573552284667095 2 62.7885360839811 9.2653599109593419 2 99.0 6.5140651644577154 2 13.049858849412065 1 2 15.549943797407227 2.7526385167849763 2 23.562661386184697 5.5632669028670767 2 45.664104170359316 1 2 57.411921119862534 1.4 2 14.560555803217813 7.2073851499922235 2 24.180937974089591 6.4898839758804359 2 61.931513461270356 2.6159821238867296 2 64.318130532913202 3.7630425043376046 2 19.975341114539965 2.8007192317396576 2 40.086062741444529 2.8976754795501654 2 61.002693093629098 1.4 2 13.712108640160162 5.5695904413689368 2 17.640296208452725 8.5440079111410654 2 40.588049846772194 1 2 43.931607355598331 5.1870268786341995 2 61.417670488322742 6.585687973105335 2 66.19569550773528 9.1114890192577871 2 99.0 1 2 18.263293653768404 1.9522520425567806 2 24.813667739286199 1 2 57.888661126568238 2.9913682181585779 2 59.354337435721 1 2 15.986410887250873 1 2 21.534196464949783 5.4939627136953781 2 26.596610559522585 1 2 40.9619617836846 5.7106539156774376 2 64.016367291108438 3.2159424182997172 2 67.35007738226598 8.8003604160867521 2 23.164516823402067 2.9248485006558949 2 41.356139227091816 1 2 61.465974328314822 3.5926777405196058 2 18.965130135205467 4.3872134892478938 2 41.70165151575268 2.9942534619484138 2 42.21654064060543 8.6808310466295655 2 63.90939169978148 6.0593249853291438 2 16.531175642615608 4.6692496588086145 2 45.089713694708166 3.2408918215850417 2 60.873349973645944 7.0985418383847456 2 57.356576621345404 1 2 15.642298747255817 6.6182952845232652 2 22.981655638977816 6.3507498894922509 2 63.041017358003437 1.2 2 21.051046901621657 1 2 41.205399454776021 1.4 2 62.153361730534257 1 2 14.612786904787169 4.666433971647665 2 18.960115637028167 6.8455609665479535 2 42.843617026077105 3.6290603089259643 2 45.08445173238777 1.8564511486859672 2 66.929829549750536 7.8798869676281091 2 17.026895074523541 2.6155229797023165 2 61.501463267984406 5.4249321849455434 2 17.004164813641509 1 2 22.004213718616711 1.4 2 39.163566292103027 8.1702550695437637 2 46.519917376763878 6.3796174619863653 2 65.202822989946995 5.0291862714726498 2 21.769104794414368 1 2 44.043966579912571 1.4 2 62.870830952640439 4.7150349603311845 2 20.628831710206619 3.1509430074279492 2 41.870211696179084 3.9476390775779286 2 40.53222136031993 7.4673126184816017 2 65.626907323699797 10.177341350755414 2 14.84082551495657 2.9193437958750841 2 43.306891165254626 1.4 2 22.520582307058852 5.3176942881050975 2 62.743156016348664 1 2 18.580114172470264 1 2 60.052160755616811 1 2 14.972496674438572 10.748465175465522 2 42.680841187934107 5.6596270170132783 2 62.695972780729768 6.6224363851941606 2 67.097201752592355 10.975199135683706 2 99.0 1 2 18.928880955216663 1.2 2 60.362028110266976 3.8423973541058793 2 61.415685542730266 2.9817321120276992 2 14.271306374502705 1 2 20.26231905341605 7.5701791168083545 2 41.053027037772935 4.2692182039421196 2 63.219881158897238 3.5293388984543435 2 42.637576681674801 1 2 62.616310186573621 3.745480648982443 2 18.086239152977114 6.2745693302128833 2 41.831964696314742 2.2658553675928386 2 41.546976238666055 7.8752304732806584 2 63.402837791557282 6.8864313490342575 2 14.978511910358407 3.832391180118754 2 45.628544561961441 3.8839739984074884 2 59.425880412500703 5.8653238401502801 2 58.408547472077281 1 2 14.529409777008185 6.1261604091751796 2 21.953364290341664 10.382254934862202 2 21.714671267497277 2.5791307946375208 2 61.367468762856213 1.2 2 20.925561287522761 8.6567089398666432 2 42.469305350536452 3.1211257818235474 2 46.306899193883467 1.2 2 64.996377967775487 8.4222772106641788 2 44.239141526215974 3.3691924190259441 2 58.633898809013253 4.5211849296174362 2 60.963313506263461 4.5763065455461778 2 21.873946789867713 4.3372036593889467 2 43.758025826106476 1.2 2 18.688375508067551 3.2451253329968508 2 40.38602245546528 8.3625194855368363 2 58.72651268231855 1.8644090847617643 2 62.249279558527789 3.1552407686760668 2 19.872561089036509 1.4 2 58.104916384717185 4.0584099257919508 2 60.343901307422698 1.2 2 17.443315045450667 10.059801189372362 2 45.14052278304861 5.5580270604256041 2 62.207410860298872 8.0762056806952192 2 19.127351895976229 2.4510432923591599 2 58.730307907034543 2.5923965756025908 2 60.626879249128095 1.4 2 20.126821018400168 5.1075086928181177 2 60.132967746354112 3.1137768890459494 2 18.292097900194026 4.8817219613232004 2 64.488965567071418 6.7592989123443754 2 15.515609288207235 4.6590588583460431 2 46.249048004819699 3.0480496679846416 2 60.183957188250865 7.9047594933272629 2 43.712855252794661 6.0468927042569849 2 20.2930191800973 1 2 62.495755410651277 2.3099062665215273 2 19.54211736048147 6.1104499167511568 2 43.532455425036019 3.6113272169750843 2 45.334889877211182 1 2 61.723504367726989 9.0306172670824481 2 18.199660228218594 3.7707907206997175 2 62.20820851768228 5.005612792407951 2 17.755595767709835 1.2 2 46.093228455822278 4.896515503428021 2 44.984863392676843 1 2 63.349515909866575 5.3921768289600802 2 21.314598320900025 3.3146060167620037 2 41.937883536131828 5.6187761008808499 2 64.777443243343384 9.305974962635613 2 43.488088514675503 2.7979214344440546 2 22.339467441715957 3.3935349575078808 2 17.358283050895146 1.4 2 59.692014327781848 1 2 43.14306267415639 4.9365169204845758 2 46.000010618304266 1 2 62.788720211136578 5.7722552574181911 2 19.732528423582036 1 2 58.979440117037555 3.814648305433892 2 60.740853531143038 2.3145475326752347 2 21.294604111093278 6.8369610085354298 2 59.995246719228604 6.5515349354460435 2 58.7347677801678 1 2 18.808597223751971 7.7315074206084438 2 45.673560329866007 1.9219535194992206 2 44.518704564006455 5.6882260096916442 2 59.617961494206618 3.5884948466643856 2 60.724650818588529 5.2833327658738014 2 63.754703832202885 9.1866923074109348 2 46.214185053672445 2.2777322806128324 2 58.193153092668055 1.2 2 47.142017314403617 1.4 2 61.988317948702438 6.0152782776427651 2 57.514077441331139 3.4823946652284037 2 59.21794761480102 2.5006204908956926 2 19.465802251347931 4.8576701859798765 2 42.821148303902326 6.8957133254467973 2 17.208976104769082 3.442167924633639 2 44.81855690463447 3.8212326258789995 2 61.42669455721451 7.8710064143161524 2 45.372907981194416 6.4386945353588256 2 17.668148110730954 7.2732778654895345 2 45.261316705505983 2.4646603915250522 2 46.786918417505646 4.5248573086924839 2 46.867861284489514 5.2334509659423611 2 18.111232534534384 1 2 58.25577066207557 2.5105165746199161 2 46.89754398197681 1.2 2 60.77979209551691 3.4645733226435378 2 46.304796377795789 3.8995306757481467 2 59.949032837381033 5.1901933017481756 2 57.818897601533017 2.0872111882789643 2 46.883009170284502 2.6360122547981302 2 43.99509675671532 4.243270158488734 2 60.165113055745422 4.4494920295406661 2 17.715636982922735 2.7223468541099467 2 59.03536810403682 1 2 45.985814617835423 5.7943084244363279 2 63.36740874190513 8.2500526610582128 2 59.255866909576213 3.0391248218659608 2 20.860776864680457 4.8187793128269769 2 18.702827816112681 5.6411165994140413 2 41.219039810496071 11.059777011768142 2 47.015283585483601 3.3612993366658932 2 57.853495431142605 1.2 2 44.716470340371004 6.6613134398793621 2 44.648974442386312 2.6596942554704293 2 60.552922748118171 8.6738322500167957 2 45.380146508752397 5.0097387851522841 2 44.490033283341639 1 2 59.836987031785718 2.0981108881262305 2 46.581702747999749 1 2 58.559439947801785 3.2803517568898428 2 </DataArray>
</Points>
<Cells>
<DataArray Name="connectivity" format="ascii" type="Int32">0</DataArray>
<DataArray Name="offsets" format="ascii" type="Int32">0</DataArray>
<DataArray Name="types" format="ascii" type="UInt8">1</DataArray>
</Cells>
<PointData>
<DataArray Name="Points" NumberOfComponents="3" format="ascii" type="Float32">0 0 0 12.48305468510153 1.2 2 23.62207344281677 1 2 24.651829943879122 7.9092301619131193 2 38.412563713267247 7.4780431570406529 2 42.081345336985493 1 2 62.162193495071328 4.1616760030925093 2 65.352239385666834 3.2818984830874318 2 96.095290509870367 7.7197693690354248 2 11.39305210778361 6.1005626554587424 2 16.83140056125691 6.3463979759457079 2 28.510329030646442 1.2 2 42.597866174335458 2.4682005875566122 2 41.954061408228867 6.8553259943741915 2 63.85190098812997 7.4147192461607974 2 67.229312063609939 9.7244332921132504 2 98.6 7.2894577684706485 2 13.564523803054803 2.8227892518682958 2 15.572718923685306 3.6254429634941236 2 22.835862069447529 4.1075995016696716 2 39.547550965380829 1 2 44.136527200069089 2.4691488461103015 2 59.281345701737081 1.6500654111410888 2 65.782989477623715 1.4 2 99.0 9.7061698811376047 2 15.115936675302718 5.4641441810453841 2 23.992764203110855 9.9980007348111286 2 27.787239381284536 4.5326423868868009 2 40.487675069013591 1.4 2 43.807570802181033 6.8103270740014885 2 63.422305885150728 3.0124924331984251 2 64.685294881710604 1 2 96.940863812858723 1.2 2 20.607147188309249 1 2 25.920999580097121 2.9976582245954395 2 41.05402019093372 2.5934919007444659 2 61.693583032424335 1 2 13.953258479376574 4.3116720149880692 2 38.901298058587237 5.2199151675591624 2 43.348804249859427 2.2164346238278863 2 45.679412757462174 2.9018056316074872 2 65.006848940763419 7.6262190658493969 2 99.0 4.9649340435974949 2 11.742650408462985 4.9782209638380071 2 16.222615450180712 3.0668732654737347 2 24.389094472290569 2.9732568415101301 2 45.298687992996356 4.4272730341168485 2 59.450829940498309 4.3901769420506387 2 60.710030683818253 6.0027128905845908 2 16.618759770768925 1.4 2 22.49520185349769 2.3946368686292754 2 27.700224923985147 3.6858358387243428 2 39.559851995162681 7.0726432991722756 2 64.419941433505997 5.6473800594858874 2 66.106879755453775 5.7499090543855971 2 99.0 3.0739558062617238 2 22.467249670549844 1.2 2 43.166133748486409 1 2 63.624674627938518 4.1411057462566658 2 19.294837928144748 3.5908170826402963 2 41.230245587617119 6.6205597567788477 2 40.902466612369771 9.6573552284667095 2 62.7885360839811 9.2653599109593419 2 99.0 6.5140651644577154 2 13.049858849412065 1 2 15.549943797407227 2.7526385167849763 2 23.562661386184697 5.5632669028670767 2 45.664104170359316 1 2 57.411921119862534 1.4 2 14.560555803217813 7.2073851499922235 2 24.180937974089591 6.4898839758804359 2 61.931513461270356 2.6159821238867296 2 64.318130532913202 3.7630425043376046 2 19.975341114539965 2.8007192317396576 2 40.086062741444529 2.8976754795501654 2 61.002693093629098 1.4 2 13.712108640160162 5.5695904413689368 2 17.640296208452725 8.5440079111410654 2 40.588049846772194 1 2 43.931607355598331 5.1870268786341995 2 61.417670488322742 6.585687973105335 2 66.19569550773528 9.1114890192577871 2 99.0 1 2 18.263293653768404 1.9522520425567806 2 24.813667739286199 1 2 57.888661126568238 2.9913682181585779 2 59.354337435721 1 2 15.986410887250873 1 2 21.534196464949783 5.4939627136953781 2 26.596610559522585 1 2 40.9619617836846 5.7106539156774376 2 64.016367291108438 3.2159424182997172 2 67.35007738226598 8.8003604160867521 2 23.164516823402067 2.9248485006558949 2 41.356139227091816 1 2 61.465974328314822 3.5926777405196058 2 18.965130135205467 4.3872134892478938 2 41.70165151575268 2.9942534619484138 2 42.21654064060543 8.6808310466295655 2 63.90939169978148 6.0593249853291438 2 16.531175642615608 4.6692496588086145 2 45.089713694708166 3.2408918215850417 2 60.873349973645944 7.0985418383847456 2 57.356576621345404 1 2 15.642298747255817 6.6182952845232652 2 22.981655638977816 6.3507498894922509 2 63.041017358003437 1.2 2 21.051046901621657 1 2 41.205399454776021 1.4 2 62.153361730534257 1 2 14.612786904787169 4.666433971647665 2 18.960115637028167 6.8455609665479535 2 42.843617026077105 3.6290603089259643 2 45.08445173238777 1.8564511486859672 2 66.929829549750536 7.8798869676281091 2 17.026895074523541 2.6155229797023165 2 61.501463267984406 5.4249321849455434 2 17.004164813641509 1 2 22.004213718616711 1.4 2 39.163566292103027 8.1702550695437637 2 46.519917376763878 6.3796174619863653 2 65.202822989946995 5.0291862714726498 2 21.769104794414368 1 2 44.043966579912571 1.4 2 62.870830952640439 4.7150349603311845 2 20.628831710206619 3.1509430074279492 2 41.870211696179084 3.9476390775779286 2 40.53222136031993 7.4673126184816017 2 65.626907323699797 10.177341350755414 2 14.84082551495657 2.9193437958750841 2 43.306891165254626 1.4 2 22.520582307058852 5.3176942881050975 2 62.743156016348664 1 2 18.580114172470264 1 2 60.052160755616811 1 2 14.972496674438572 10.748465175465522 2 42.680841187934107 5.6596270170132783 2 62.695972780729768 6.6224363851941606 2 67.097201752592355 10.975199135683706 2 99.0 1 2 18.928880955216663 1.2 2 60.362028110266976 3.8423973541058793 2 61.415685542730266 2.9817321120276992 2 14.271306374502705 1 2 20.26231905341605 7.5701791168083545 2 41.053027037772935 4.2692182039421196 2 63.219881158897238 3.5293388984543435 2 42.637576681674801 1 2 62.616310186573621 3.745480648982443 2 18.086239152977114 6.2745693302128833 2 41.831964696314742 2.2658553675928386 2 41.546976238666055 7.8752304732806584 2 63.402837791557282 6.8864313490342575 2 14.978511910358407 3.832391180118754 2 45.628544561961441 3.8839739984074884 2 59.425880412500703 5.8653238401502801 2 58.408547472077281 1 2 14.529409777008185 6.1261604091751796 2 21.953364290341664 10.382254934862202 2 21.714671267497277 2.5791307946375208 2 61.367468762856213 1.2 2 20.925561287522761 8.6567089398666432 2 42.469305350536452 3.1211257818235474 2 46.306899193883467 1.2 2 64.996377967775487 8.4222772106641788 2 44.239141526215974 3.3691924190259441 2 58.633898809013253 4.5211849296174362 2 60.963313506263461 4.5763065455461778 2 21.873946789867713 4.3372036593889467 2 43.758025826106476 1.2 2 18.688375508067551 3.2451253329968508 2 40.38602245546528 8.3625194855368363 2 58.72651268231855 1.8644090847617643 2 62.249279558527789 3.1552407686760668 2 19.872561089036509 1.4 2 58.104916384717185 4.0584099257919508 2 60.343901307422698 1.2 2 17.443315045450667 10.059801189372362 2 45.14052278304861 5.5580270604256041 2 62.207410860298872 8.0762056806952192 2 19.127351895976229 2.4510432923591599 2 58.730307907034543 2.5923965756025908 2 60.626879249128095 1.4 2 20.126821018400168 5.1075086928181177 2 60.132967746354112 3.1137768890459494 2 18.292097900194026 4.8817219613232004 2 64.488965567071418 6.7592989123443754 2 15.515609288207235 4.6590588583460431 2 46.249048004819699 3.0480496679846416 2 60.183957188250865 7.9047594933272629 2 43.712855252794661 6.0468927042569849 2 20.2930191800973 1 2 62.495755410651277 2.3099062665215273 2 19.54211736048147 6.1104499167511568 2 43.532455425036019 3.6113272169750843 2 45.334889877211182 1 2 61.723504367726989 9.0306172670824481 2 18.199660228218594 3.7707907206997175 2 62.20820851768228 5.005612792407951 2 17.755595767709835 1.2 2 46.093228455822278 4.896515503428021 2 44.984863392676843 1 2 63.349515909866575 5.3921768289600802 2 21.314598320900025 3.3146060167620037 2 41.937883536131828 5.6187761008808499 2 64.777443243343384 9.305974962635613 2 43.488088514675503 2.7979214344440546 2 22.339467441715957 3.3935349575078808 2 17.358283050895146 1.4 2 59.692014327781848 1 2 43.14306267415639 4.9365169204845758 2 46.000010618304266 1 2 62.788720211136578 5.7722552574181911 2 19.732528423582036 1 2 58.979440117037555 3.814648305433892 2 60.740853531143038 2.3145475326752347 2 21.294604111093278 6.8369610085354298 2 59.995246719228604 6.5515349354460435 2 58.7347677801678 1 2 18.808597223751971 7.7315074206084438 2 45.673560329866007 1.9219535194992206 2 44.518704564006455 5.6882260096916442 2 59.617961494206618 3.5884948466643856 2 60.724650818588529 5.2833327658738014 2 63.754703832202885 9.1866923074109348 2 46.214185053672445 2.2777322806128324 2 58.193153092668055 1.2 2 47.142017314403617 1.4 2 61.988317948702438 6.0152782776427651 2 57.514077441331139 3.4823946652284037 2 59.21794761480102 2.5006204908956926 2 19.465802251347931 4.8576701859798765 2 42.821148303902326 6.8957133254467973 2 17.208976104769082 3.442167924633639 2 44.81855690463447 3.8212326258789995 2 61.42669455721451 7.8710064143161524 2 45.372907981194416 6.4386945353588256 2 17.668148110730954 7.2732778654895345 2 45.261316705505983 2.4646603915250522 2 46.786918417505646 4.5248573086924839 2 46.867861284489514 5.2334509659423611 2 18.111232534534384 1 2 58.25577066207557 2.5105165746199161 2 46.89754398197681 1.2 2 60.77979209551691 3.4645733226435378 2 46.304796377795789 3.8995306757481467 2 59.949032837381033 5.1901933017481756 2 57.818897601533017 2.0872111882789643 2 46.883009170284502 2.6360122547981302 2 43.99509675671532 4.243270158488734 2 60.165113055745422 4.4494920295406661 2 17.715636982922735 2.7223468541099467 2 59.03536810403682 1 2 45.985814617835423 5.7943084244363279 2 63.36740874190513 8.2500526610582128 2 59.255866909576213 3.0391248218659608 2 20.860776864680457 4.8187793128269769 2 18.702827816112681 5.6411165994140413 2 41.219039810496071 11.059777011768142 2 47.015283585483601 3.3612993366658932 2 57.853495431142605 1.2 2 44.716470340371004 6.6613134398793621 2 44.648974442386312 2.6596942554704293 2 60.552922748118171 8.6738322500167957 2 45.380146508752397 5.0097387851522841 2 44.490033283341639 1 2 59.836987031785718 2.0981108881262305 2 46.581702747999749 1 2 58.559439947801785 3.2803517568898428 2 </DataArray>