<?xml version="1.0" ?>
<VTKFile byte_order="LittleEndian" type="UnstructuredGrid" version="0.1">
<UnstructuredGrid>
<Piece NumberOfCells="0" NumberOfPoints="150">
<Points>
<DataArray NumberOfComponents="3" format="ascii" type="Float32">51.225266648045647 4.1551575705095845 2 51.94905590700084 1.4 2 58.676704717405599 6.6207250398731796 2 53.367675194161883 9.4924115628038699 2 54.045474375690588 1.4 2 19.287320990559024 8.8793870021179586 2 58.660102337538632 8.5179307005507656 2 50.288501160241701 3.0748186140377065 2 47.003506543067402 7.3755592236335215 2 54.83141670483564 5.2348152331306013 2 50.563856009310584 1.4 2 56.541555299680873 7.8143388785466543 2 44.933872949560673 9.8362398858722422 2 51.610376496648378 8.0976735788108343 2 56.952307155056396 3.0353377392349632 2 49.314650400221119 1.4 2 48.390143339522652 3.8276234525713959 2 51.418060201697458 5.7805468678208154 2 50.700450976872162 7.6717483376418896 2 53.346086146492873 4.2415899962344952 2 56.099672654233089 2.9298035828943565 2 45.713139373388081 7.1798620647381695 2 56.498258816412658 11.657283471068222 2 53.679786286910087 1.4 2 61.100743633634885 9.932366139422335 2 47.523414711728826 4.0344352875969989 2 56.808323213159937 5.1930080616692136 2 48.513285046101267 2.7686037804246055 2 52.770767380681392 5.1907035769350056 2 51.28535087497194 1.4 2 56.145333389619687 6.8916683034011612 2 55.770631507731864 1.4 2 48.443123550190897 10.769011051414505 2 55.173373417136482 7.3540679616122624 2 56.937111952301542 1.4 2 47.862516044382275 1.4 2 47.90599798669956 3.2450447195132184 2 48.935801927975575 5.9611946101205122 2 52.563476042304089 11.797711361881069 2 51.908802853287447 3.6884982742286376 2 52.989401520455552 1.4 2 45.864941073030138 8.1575645185735368 2 53.885866977854576 10.726134457957016 2 56.189770244277767 1.4 2 59.477734767667101 9.2529383947501387 2 50.416838155254908 3.7302164616024158 2 46.505580959765943 8.9498747205537512 2 55.735260826332294 5.3680695816670445 2 49.798186943244488 1.4 2 62.24720824210717 10.902056200651664 2 47.508901306255297 1.4 2 55.371133571223467 8.3843784016606069 2 46.513555383485361 10.382307619574167 2 51.854571631560191 6.8953763612749901 2 50.154610414885184 1.4 2 50.302486709735781 5.8441077223544324 2 50.838574937752263 6.6258204088421202 2 48.757558398509111 7.8015516115559596 2 53.560459247057011 3.3809226769187011 2 43.037686958159938 10.437494944473475 2 54.362357820799176 4.531091167379147 2 56.557434577762827 1.4 2 56.228874558960499 9.314311878760682 2 52.296536151897385 1.4 2 47.632038395092863 5.1437032022151854 2 56.126460962714077 4.5449877935899927 2 50.382083892673258 1.9740895987244604 2 53.424332002849333 6.0157126008831039 2 52.447282667773763 2.315630827122658 2 57.9721980214402 5.9387091249648956 2 55.142412641272053 2.6447727703710582 2 48.909470992408437 8.7904928966935909 2 53.808393852458252 7.9047547458260174 2 55.075283712456326 1.4 2 49.191578975644568 3.3611465363391728 2 48.025914103989621 6.8148602270680616 2 50.801314652690031 9.6695952552616902 2 52.473209505972122 4.3089805841640807 2 51.621325375176717 1.4 2 43.626818915450322 7.8774416613541929 2 54.256734053948001 8.7362280010625675 2 52.651102143655599 1.4 2 57.347918530755699 8.587116192308704 2 51.944485260038505 2.9584538543282806 2 47.683457713350968 8.2820995096206573 2 53.686973436488309 5.1942445993244384 2 49.333305077875856 1.4833892973452221 2 57.923829563125786 7.6088220556803314 2 43.747977708666959 9.2048293555878509 2 52.368997832893662 8.9667919848596398 2 55.75386689437061 3.5722106577641868 2 50.101242832770673 4.5451131427438538 2 52.371776337895966 6.0308480335040855 2 50.292338323415464 8.5892349103161898 2 54.136062302209531 3.7010716105571486 2 56.595652394668143 3.7352492028339745 2 57.044083321469508 2.2564168634331994 2 58.55426386300892 11.909327947350532 2 53.930968519680121 2.1701247508658312 2 60.073030464537325 10.938732301201835 2 56.72581872294456 6.0139662622661838 2 48.204172319120687 1.4 2 51.816381368281704 5.0014243710199224 2 51.225740707523258 2.5069130389854721 2 57.313928549501178 6.7922154384189355 2 54.401349615260045 1.4 2 49.126024534412359 12.091484694924828 2 55.460570578318759 6.2313976752885409 2 47.574628898281318 2.3655414959301386 2 48.925856772039765 4.618332858542856 2 50.818322349675761 11.24149484322432 2 52.708236062471855 3.4756114641088445 2 54.742174328605657 1.4 2 44.750211783618433 8.0724205273804941 2 55.014415899410352 11.375130649252613 2 55.411362398212361 1.4 2 58.414538140211462 10.094441291105012 2 57.765735250051179 5.0553261771959592 2 50.853932827560442 5.0518096007632325 2 47.70957400495282 9.7360911096618636 2 54.457018272992755 6.0343870783215028 2 49.530758502214958 2.7958941850563357 2 64.090584967958691 11.087288573951183 2 48.532617598907876 1.4 2 55.121790433026163 9.7119183163810128 2 45.54236615833041 11.578092223032137 2 52.65148726228405 7.7583510217024489 2 57.231881357371009 4.2936905034837594 2 48.864540583733827 1.4 2 49.62815886863968 5.3565569862478224 2 49.078804084572809 6.8486335347818832 2 49.898738123715233 7.0779095478631771 2 54.40068362569157 2.9257930509336409 2 55.262198292573537 4.2589748101940232 2 59.26903032426101 7.3796711536026445 2 57.148480629401277 10.102236583093408 2 53.329792099696455 1.4 2 48.368793712704651 5.2060376059052906 2 54.912455392628246 3.5210068165367541 2 50.935968948617287 1.4 2 53.109585535788739 6.8923164343789329 2 51.138672813331624 3.349349480518709 2 58.847579533376916 5.1997222650050503 2 53.179936637231144 2.7468216536219963 2 49.599014123839488 9.7310258082180212 2 54.236592710622723 6.9895789896830784 2 55.994161556122705 1.9896196938604396 2 49.3884431389586 3.9081188157936104 2 47.381033279901594 6.0839231868711767 2 52.032793830899273 10.105632544507733 2 </DataArray>
</Points>
<Cells>
<DataArray Name="connectivity" format="ascii" type="Int32">0</DataArray>
<DataArray Name="offsets" format="ascii" type="Int32">0</DataArray>
<DataArray Name="types" format="ascii" type="UInt8">1</DataArray>
</Cells>
<PointData>
<DataArray Name="Points" NumberOfComponents="3" format="ascii" type="Float32">51.225266648045647 4.1551575705095845 2 51.94905590700084 1.4 2 58.676704717405599 6.6207250398731796 2 53.367675194161883 9.4924115628038699 2 54.045474375690588 1.4 2 19.287320990559024 8.8793870021179586 2 58.660102337538632 8.5179307005507656 2 50.288501160241701 3.0748186140377065 2 47.003506543067402 7.3755592236335215 2 54.83141670483564 5.2348152331306013 2 50.563856009310584 1.4 2 56.541555299680873 7.8143388785466543 2 44.933872949560673 9.8362398858722422 2 51.610376496648378 8.0976735788108343 2 56.952307155056396 3.0353377392349632 2 49.314650400221119 1.4 2 48.390143339522652 3.8276234525713959 2 51.418060201697458 5.7805468678208154 2 50.700450976872162 7.6717483376418896 2 53.346086146492873 4.2415899962344952 2 56.099672654233089 2.9298035828943565 2 45.713139373388081 7.1798620647381695 2 56.498258816412658 11.657283471068222 2 53.679786286910087 1.4 2 61.100743633634885 9.932366139422335 2 47.523414711728826 4.0344352875969989 2 56.808323213159937 5.1930080616692136 2 48.513285046101267 2.7686037804246055 2 52.770767380681392 5.1907035769350056 2 51.28535087497194 1.4 2 56.145333389619687 6.8916683034011612 2 55.770631507731864 1.4 2 48.443123550190897 10.769011051414505 2 55.173373417136482 7.3540679616122624 2 56.937111952301542 1.4 2 47.862516044382275 1.4 2 47.90599798669956 3.2450447195132184 2 48.935801927975575 5.9611946101205122 2 52.563476042304089 11.797711361881069 2 51.908802853287447 3.6884982742286376 2 52.989401520455552 1.4 2 45.864941073030138 8.1575645185735368 2 53.885866977854576 10.726134457957016 2 56.189770244277767 1.4 2 59.477734767667101 9.2529383947501387 2 50.416838155254908 3.7302164616024158 2 46.505580959765943 8.9498747205537512 2 55.735260826332294 5.3680695816670445 2 49.798186943244488 1.4 2 62.24720824210717 10.902056200651664 2 47.508901306255297 1.4 2 55.371133571223467 8.3843784016606069 2 46.513555383485361 10.382307619574167 2 51.854571631560191 6.8953763612749901 2 50.154610414885184 1.4 2 50.302486709735781 5.8441077223544324 2 50.838574937752263 6.6258204088421202 2 48.757558398509111 7.8015516115559596 2 53.560459247057011 3.3809226769187011 2 43.037686958159938 10.437494944473475 2 54.362357820799176 4.531091167379147 2 56.557434577762827 1.4 2 56.228874558960499 9.314311878760682 2 52.296536151897385 1.4 2 47.632038395092863 5.1437032022151854 2 56.126460962714077 4.5449877935899927 2 50.382083892673258 1.9740895987244604 2 53.424332002849333 6.0157126008831039 2 52.447282667773763 2.315630827122658 2 57.9721980214402 5.9387091249648956 2 55.142412641272053 2.6447727703710582 2 48.909470992408437 8.7904928966935909 2 53.808393852458252 7.9047547458260174 2 55.075283712456326 1.4 2 49.191578975644568 3.3611465363391728 2 48.025914103989621 6.8148602270680616 2 50.801314652690031 9.6695952552616902 2 52.473209505972122 4.3089805841640807 2 51.621325375176717 1.4 2 43.626818915450322 7.8774416613541929 2 54.256734053948001 8.7362280010625675 2 52.651102143655599 1.4 2 57.347918530755699 8.587116192308704 2 51.944485260038505 2.9584538543282806 2 47.683457713350968 8.2820995096206573 2 53.686973436488309 5.1942445993244384 2 49.333305077875856 1.4833892973452221 2 57.923829563125786 7.6088220556803314 2 43.747977708666959 9.2048293555878509 2 52.368997832893662 8.9667919848596398 2 55.75386689437061 3.5722106577641868 2 50.101242832770673 4.5451131427438538 2 52.371776337895966 6.0308480335040855 2 50.292338323415464 8.5892349103161898 2 54.136062302209531 3.7010716105571486 2 56.595652394668143 3.7352492028339745 2 57.044083321469508 2.2564168634331994 2 58.55426386300892 11.909327947350532 2 53.930968519680121 2.1701247508658312 2 60.073030464537325 10.938732301201835 2 56.72581872294456 6.0139662622661838 2 48.204172319120687 1.4 2 51.816381368281704 5.0014243710199224 2 51.225740707523258 2.5069130389854721 2 57.313928549501178 6.7922154384189355 2 54.401349615260045 1.4 2 49.126024534412359 12.091484694924828 2 55.460570578318759 6.2313976752885409 2 47.574628898281318 2.3655414959301386 2 48.925856772039765 4.618332858542856 2 50.818322349675761 11.24149484322432 2 52.708236062471855 3.4756114641088445 2 54.742174328605657 1.4 2 44.750211783618433 8.0724205273804941 2 55.014415899410352 11.375130649252613 2 55.411362398212361 1.4 2 58.414538140211462 10.094441291105012 2 57.765735250051179 5.0553261771959592 2 50.853932827560442 5.0518096007632325 2 47.70957400495282 9.7360911096618636 2 54.457018272992755 6.0343870783215028 2 49.530758502214958 2.7958941850563357 2 64.090584967958691 11.087288573951183 2 48.532617598907876 1.4 2 55.121790433026163 9.7119183163810128 2 45.54236615833041 11.578092223032137 2 52.65148726228405 7.7583510217024489 2 57.231881357371009 4.2936905034837594 2 48.864540583733827 1.4 2 49.62815886863968 5.3565569862478224 2 49.078804084572809 6.8486335347818832 2 49.898738123715233 7.0779095478631771 2 54.40068362569157 2.9257930509336409 2 55.262198292573537 4.2589748101940232 2 59.26903032426101 7.3796711536026445 2 57.148480629401277 10.102236583093408 2 53.329792099696455 1.4 2 48.368793712704651 5.2060376059052906 2 54.912455392628246 3.5210068165367541 2 50.935968948617287 1.4 2 53.109585535788739 6.8923164343789329 2 51.138672813331624 3.349349480518709 2 58.847579533376916 5.1997222650050503 2 53.179936637231144 2.7468216536219963 2 49.599014123839488 9.7310258082180212 2 54.236592710622723 6.9895789896830784 2 55.994161556122705 1.9896196938604396 2 49.3884431389586 3.9081188157936104 2 47.381033279901594 6.0839231868711767 2 52.032793830899273 10.105632544507733 2 </DataArray>
<DataArray Name="forces" NumberOfComponents="3" format="ascii" type="Float32">-0.23059826918354243 2.1607692270671994 0.0 -0.060986757840348571 -7.6039992208895697 0.0 0.48171308421158188 2.0910386071930782 0.0 0.0029594685552141176 2.1136241552737944 0.0 0.16666562926174 -8.013868821389126 0.0 0.067915352734794543 2.2511103335825342 0.0 0.28259309850780889 2.0301457575362329 0.0 -0.6016688823322649 2.5055818686777673 0.0 -0.54621468595256006 2.164641889840377 0.0 0.29549238114152582 2.4524998606962742 0.0 -0.069010364043372727 -8.2075131020630305 0.0 0.28583864129216363 2.1416710767390197 0.0 -0.29572015877350288 1.8455304177928884 0.0 -0.25531457292939197 2.2069247256741349 0.0 0.36288035971513055 2.4666070430468978 0.0 -0.56232591985811464 -9.2189189867449457 0.0 -0.18999517787137604 2.3287556733227834 0.0 -0.26870965801225744 2.2789697715811772 0.0 -0.081233094269817618 2.1944998353318379 0.0 0.13910031697141581 2.1914599405048247 0.0 0.55093960105418638 2.5121779895600325 0.0 -0.42098606730988281 2.3687847746751469 0.0 0.17514608066241205 2.1809927214796936 0.0 0.080172606180718642 -7.9668637815018277 0.0 0.096750416232028291 2.1333806658993248 0.0 -0.47285713721103179 2.2571319070359608 0.0 0.49870172450007266 2.3319172137020283 0.0 -0.34121901332066085 2.4793881459729867 0.0 0.040279067100962462 2.2841464533948783 0.0 -0.088691657682801461 -7.6998695765679823 0.0 0.16343569500162525 2.0837624204270773 0.0 0.28350110595539868 -8.0436739855083825 0.0 -0.39290014792389361 2.1284244436642563 0.0 0.21930690287009225 2.1040564245861808 0.0 0.46638826067656469 -6.4753791955817723 0.0 -0.63136296096802513 -6.5753437858028576 0.0 -0.69224787336395233 2.5432340886335583 0.0 -0.40549705168193917 2.1778705618415923 0.0 -0.026394258214547106 2.3912365195191807 0.0 -0.16765674083439563 2.6450016177343691 0.0 0.047089609506212327 -7.7204678119450278 0.0 -0.27049181101837144 2.0408299757803459 0.0 0.068206928728057892 2.1164655753129975 0.0 0.4624294657188065 -8.0486185674904114 0.0 0.38617016676759452 2.0554285167480533 0.0 -0.49919648719406551 2.4663220235947443 0.0 -0.47961059374974158 2.1715252417887236 0.0 0.37036867264057188 2.1715696421534467 0.0 -0.003017375955340941 -7.7218506399638391 0.0 0.18317245316398861 2.3901829756637616 0.0 -0.66741214167897689 -6.0968205716633328 0.0 0.19027648594322172 2.0994853436570997 0.0 -0.27487540662669485 2.0859551475134932 0.0 -0.12419292160161038 2.2850058692546127 0.0 -0.15439951972273594 -8.0725521646702791 0.0 -0.47648651416086502 2.2500167296184044 0.0 -0.23827896779234981 2.140658272275942 0.0 -0.45041412712465129 2.0860326146248029 0.0 0.11252961277281613 2.6990040830214377 0.0 -0.03856061645825104 2.1908628353398929 0.0 0.19135262576761064 2.4642356472678673 0.0 0.46690457993070034 -7.3573260962582632 0.0 0.10538876947047382 2.0941528064947073 0.0 -0.016704556678231675 -7.7887176034192365 0.0 -0.4951496724741144 2.0174008197082798 0.0 0.40520172027384421 2.2292503803002268 0.0 -0.55215799481694705 2.3277533780240978 0.0 -0.060784921410979242 2.3472492142875696 0.0 0.010571998144387029 2.4832852742093374 0.0 0.3673906102509148 2.2896885181191813 0.0 0.38033828461400199 2.6380807714015697 0.0 -0.28085040444985276 2.1269255672242 0.0 0.0048336393842913772 2.1800394000927388 0.0 0.2323493619884669 -7.541620949922117 0.0 -0.69208148706078876 2.3192942117287285 0.0 -0.40298270030817229 2.2070448453774771 0.0 -0.040779544242366628 2.1855937473151172 0.0 -0.036582343518005322 2.3166495660493087 0.0 -0.07924167280357175 -7.6336241597206875 0.0 -0.61914462355155053 2.0725634484829314 0.0 0.17520127402948635 2.0944186697138054 0.0 0.027482657217292927 -7.7585590964364464 0.0 0.30080217761147721 2.2140545418786806 0.0 -0.11345924357938603 2.8328621477928544 0.0 -0.31263325618257037 2.0740653751364024 0.0 0.097268289157975529 2.3833788533638769 0.0 -0.3142370951404409 -1.8966887132317394 0.0 0.19310898782159147 2.0689591183155982 0.0 -0.32473009625164662 1.93123071703287 0.0 -0.16831212253265271 2.1159820358485382 0.0 0.34977641569887219 2.5445836911402848 0.0 -0.24991450275782445 2.3521133231565008 0.0 -0.17881660839981972 2.202401976162673 0.0 -0.63851161069743123 2.2009367754912925 0.0 0.30210668893018056 2.5450559845426759 0.0 0.38776055095042128 2.4690814277678363 0.0 0.68139016061166946 2.4342397975377237 0.0 0.27327571625990882 2.0087788071071846 0.0 0.16126143500335732 2.2793986423167212 0.0 0.31810724065688045 2.2798423125948473 0.0 0.31721770423050522 2.2918228029485799 0.0 -0.63733959409701768 -6.6559583534217301 0.0 -0.065881696590917527 2.4495717314847334 0.0 -0.21404517520557453 2.6363399732509989 0.0 0.28832148208997083 2.1834122794770483 0.0 0.24887988907775926 -7.7571995996509377 0.0 -0.26029477725145012 2.0011605288288594 0.0 0.20400308612446305 2.0947541767139217 0.0 -0.52381000969212621 2.6665101728618388 0.0 -0.48182465045550271 2.2535654147907858 0.0 -0.024364450006977512 2.1814331248189505 0.0 -0.011624852859495771 2.6252376783278777 0.0 0.25916198156504877 -7.569490176828281 0.0 -0.58392186481258435 2.0976075257346345 0.0 0.0012325742605631129 2.3789054155473752 0.0 0.26294015468826526 -7.6926170992878085 0.0 0.31556474381357602 1.7991991155219498 0.0 0.47775256470397304 2.2867582212575619 0.0 -0.11513012844992332 2.3730491229396078 0.0 -0.2794728195197218 1.9941100281222031 0.0 0.061870449451153497 2.2672234192484084 0.0 -0.40530600713328829 2.2777395783541294 0.0 0.25879644614132175 2.2100084991857338 0.0 -0.68150182872318144 -6.6805264390011612 0.0 0.04787317488136511 2.2316944294517915 0.0 -0.43774964521242588 1.8974564416873594 0.0 -0.02532147460276099 2.2601220824789978 0.0 0.33705026213946987 2.3212527781969277 0.0 -0.83493123419107895 -7.0194335831357133 0.0 -0.38263858346981883 2.2206002797626012 0.0 -0.26446466447043104 2.0807219130785128 0.0 -0.24751189527018463 2.2790738341181696 0.0 0.2201676361689493 2.5958027793299694 0.0 0.19575667524172777 2.2099447286966898 0.0 0.22648722685007525 2.0497470040969157 0.0 0.18727257268767961 2.2296818197351858 0.0 0.054240176530288106 -7.7809284287802907 0.0 -0.47470363504367641 2.3165220646233493 0.0 0.27216661388501928 2.5970421299483832 0.0 -0.094959480114754663 -7.8202458427654049 0.0 -0.024350489481696158 2.1744812789770807 0.0 -0.52206115617327553 2.532265247601313 0.0 0.393295151962824 2.2114683563825466 0.0 0.053959339659759187 2.6583822670444421 0.0 -0.14997507134040713 2.2570183435091797 0.0 0.11224534838046996 2.2854828330449539 0.0 0.2790824716745352 1.9696424932152619 0.0 -0.21656414803659541 2.3201480566093382 0.0 -0.23986311902634636 2.0962747702838 0.0 0.078790612325662424 2.1652553490182522 0.0 </DataArray>
<DataArray Name="radii" format="ascii" type="Float32">1.4 1.4 1.4 1.4 1.4 1.4 1.4 1.4 1.4 1.4 1.4 1.4 1.4 1.4 1.4 1.4 1.4 1.4 1.4 1.4 1.4 1.4 1.4 1.4 1.4 1.4 1.4 1.4 1.4 1.4 1.4 1.4 1.4 1.4 1.4 1.4 1.4 1.4 1.4 1.4 1.4 1.4 1.4 1.4 1.4 1.4 1.4 1.4 1.4 1.4 1.4 1.4 1.4 1.4 1.4 1.4 1.4 1.4 1.4 1.4 1.4 1.4 1.4 1.4 1.4 1.4 1.4 1.4 1.4 1.4 1.4 1.4 1.4 1.4 1.4 1.4 1.4 1.4 1.4 1.4 1.4 1.4 1.4 1.4 1.4 1.4 1.4 1.4 1.4 1.4 1.4 1.4 1.4 1.4 1.4 1.4 1.4 1.4 1.4 1.4 1.4 1.4 1.4 1.4 1.4 1.4 1.4 1.4 1.4 1.4 1.4 1.4 1.4 1.4 1.4 1.4 1.4 1.4 1.4 1.4 1.4 1.4 1.4 1.4 1.4 1.4 1.4 1.4 1.4 1.4 1.4 1.4 1.4 1.4 1.4 1.4 1.4 1.4 1.4 1.4 1.4 1.4 1.4 1.4 1.4 1.4 1.4 1.4 1.4 1.4 </DataArray>
</PointData>
<CellData/>
</Piece>
</UnstructuredGrid>
</VTKFile>
