<?xml version="1.0" ?>
<VTKFile byte_order="LittleEndian" type="UnstructuredGrid" version="0.1">
<UnstructuredGrid>
<Piece NumberOfCells="0" NumberOfPoints="53">
<Points>
<DataArray NumberOfComponents="3" format="ascii" type="Float32">22.563506227545634 1.2 2 26.933716173368225 5.4188505142854417 2 45.84060179243432 1.2 2 53.584995881386355 3.2356972401636113 2 60.602015353229966 3.2314847256230301 2 12.860675671215416 5.0637169490652241 2 17.576961856373522 5.3895134479077855 2 43.65000475042627 3.5505197138140616 2 45.902007106268861 5.6798600209121286 2 52.534033577250185 1.2 2 61.467946436272129 5.3596068541460822 2 66.020222828461868 5.2161968622324997 2 98.8 3.9060678370763569 2 12.515916916012173 1.2 2 16.805461571930024 3.1434731382381411 2 23.674669434262171 3.2924030599657028 2 48.04767907030346 1.2 2 56.187445766298886 5.5782109975142928 2 57.126574951536575 1.2 2 15.208893812314319 4.9261291839913044 2 19.899225989079863 5.1368208042932091 2 39.26080009401695 1.2 2 48.966457542639802 5.6911282488941657 2 53.781045020228682 5.6059861525733297 2 61.768166778042954 1.2 2 64.055297356687149 1.2 2 20.253347276879168 1.2 2 26.023903811145367 3.2420017558318315 2 43.674546296535361 1.2 2 54.736903509774748 1.2 2 59.374807368785021 1.2 2 13.976711440786323 2.9680690688589211 2 18.612257612587864 7.4726875159851138 2 41.476965512388368 1.2 2 46.555983267914229 3.4090555662973991 2 50.227621372129782 1.2 2 59.096638345770131 5.435398922705196 2 63.764802044492171 5.9550039204967469 2 98.8 1.2 2 17.938289333943086 1.2 2 24.880639196568918 1.2 2 48.921225727595377 3.3286744322059953 2 55.932034467138877 3.2672911823381976 2 58.219970535385663 3.2170010742474529 2 15.541371968792784 1.2 2 21.328317637701833 3.254230826662821 2 27.207991433590404 1.2 2 41.262884135062556 3.535926027763812 2 51.284828248225814 3.2764061822435075 2 51.370390047965373 5.6248313159108987 2 63.11650573442811 3.3626822596063506 2 65.500660810148702 2.9600016168827841 2 96.900586914415825 2.6159850842918755 2 </DataArray>
</Points>
<Cells>
<DataArray Name="connectivity" format="ascii" type="Int32">0</DataArray>
<DataArray Name="offsets" format="ascii" type="Int32">0</DataArray>
<DataArray Name="types" format="ascii" type="UInt8">1</DataArray>
</Cells>
<PointData>
<DataArray Name="Points" NumberOfComponents="3" format="ascii" type="Float32">22.563506227545634 1.2 2 26.933716173368225 5.4188505142854417 2 45.84060179243432 1.2 2 53.584995881386355 3.2356972401636113 2 60.602015353229966 3.2314847256230301 2 12.860675671215416 5.0637169490652241 2 17.576961856373522 5.3895134479077855 2 43.65000475042627 3.5505197138140616 2 45.902007106268861 5.6798600209121286 2 52.534033577250185 1.2 2 61.467946436272129 5.3596068541460822 2 66.020222828461868 5.2161968622324997 2 98.8 3.9060678370763569 2 12.515916916012173 1.2 2 16.805461571930024 3.1434731382381411 2 23.674669434262171 3.2924030599657028 2 48.04767907030346 1.2 2 56.187445766298886 5.5782109975142928 2 57.126574951536575 1.2 2 15.208893812314319 4.9261291839913044 2 19.899225989079863 5.1368208042932091 2 39.26080009401695 1.2 2 48.966457542639802 5.6911282488941657 2 53.781045020228682 5.6059861525733297 2 61.768166778042954 1.2 2 64.055297356687149 1.2 2 20.253347276879168 1.2 2 26.023903811145367 3.2420017558318315 2 43.674546296535361 1.2 2 54.736903509774748 1.2 2 59.374807368785021 1.2 2 13.976711440786323 2.9680690688589211 2 18.612257612587864 7.4726875159851138 2 41.476965512388368 1.2 2 46.555983267914229 3.4090555662973991 2 50.227621372129782 1.2 2 59.096638345770131 5.435398922705196 2 63.764802044492171 5.9550039204967469 2 98.8 1.2 2 17.938289333943086 1.2 2 24.880639196568918 1.2 2 48.921225727595377 3.3286744322059953 2 55.932034467138877 3.2672911823381976 2 58.219970535385663 3.2170010742474529 2 15.541371968792784 1.2 2 21.328317637701833 3.254230826662821 2 27.207991433590404 1.2 2 41.262884135062556 3.535926027763812 2 51.284828248225814 3.2764061822435075 2 51.370390047965373 5.6248313159108987 2 63.11650573442811 3.3626822596063506 2 65.500660810148702 2.9600016168827841 2 96.900586914415825 2.6159850842918755 2 </DataArray>
<DataArray Name="forces" NumberOfComponents="3" format="ascii" type="Float32">-0.032148264332079651 -0.026318430325465769 0.0 0.01654794454144071 0.039513504758958672 0.0 -0.047550464634102479 -0.07821672038016543 0.0 -0.062103642073276268 -0.049252329084270755 0.0 0.072937277551194571 0.13868441080756219 0.0 0.03507392508085512 0.042418745405116261 0.0 0.12784934366574041 0.13944992963427832 0.0 0.012661552285385052 0.046690064516614851 0.0 -0.010246450403767954 0.036266280795031434 0.0 0.18796063018561154 -0.030488022169674035 0.0 -0.040030043344475408 0.02351656190930361 0.0 0.035089001185796151 0.074959884264655247 0.0 0.086576446710943444 0.058605383273048373 0.0 -0.022246662150100821 -0.13111529467645988 0.0 -0.015226955521741293 -0.078873458149101752 0.0 0.0092692244651791933 0.028236782410684374 0.0 0.06075627029405134 -0.06893951538636732 0.0 0.0011025538539463798 0.0088270747892352924 0.0 0.24549092412196921 -0.069165923824650921 0.0 -0.12437218244597337 0.081188980663805255 0.0 -0.031806943890101677 0.046047478557815123 0.0 -0.02183510664221977 -0.057905101208117454 0.0 0.00068336725870724209 0.045994128626935277 0.0 0.0053283222811267442 0.073339146210170486 0.0 0.12807577881484988 -0.085855599737386407 0.0 -0.023180832092550535 -0.13409064034781079 0.0 -0.0051743188335120274 -0.065198928918855689 0.0 0.018325844587299866 0.033003721158047783 0.0 0.0018536537614499415 -0.046603135177921029 0.0 -0.23650005386708473 -0.1034632517980489 0.0 -0.17513881535898465 -0.10744516237320215 0.0 0.027409710038509935 0.11159760686278136 0.0 0.0 0.0 0.0 -0.029277322752483979 -0.050851625119422893 0.0 0.018441543257599197 0.042445511695293058 0.0 -0.11852018372641163 -0.098923491061528132 0.0 0.033465344755038907 0.087453377234068722 0.0 0.038803381069854752 0.020600434653194607 0.0 0.023236965375100279 -0.017323728722746196 0.0 -0.059939965949244646 -0.08209476654854371 0.0 0.003293944535078086 -0.048529656762583473 0.0 -0.024505528884593224 0.024604987553902825 0.0 0.10162836994969773 0.16041178171749718 0.0 -0.095154833859670079 -0.070545132213274464 0.0 0.021669553035277855 -0.064803263912945622 0.0 0.01900714852289092 0.018160038243344327 0.0 -0.01033908158859366 -0.085456066604878811 0.0 0.011662045067156776 0.049348399517076806 0.0 0.058902190500399756 0.07433498023435961 0.0 0.0014573728091665464 0.03164298020163752 0.0 -0.012543304294663373 0.028895344343754285 0.0 -0.0158150564758512 0.091536276690502946 0.0 0.0036221053248647224 0.05042543952736725 0.0 </DataArray>
<DataArray Name="radii" format="ascii" type="Float32">1.2 1.2 1.2 1.2 1.2 1.2 1.2 1.2 1.2 1.2 1.2 1.2 1.2 1.2 1.2 1.2 1.2 1.2 1.2 1.2 1.2 1.2 1.2 1.2 1.2 1.2 1.2 1.2 1.2 1.2 1.2 1.2 1.2 1.2 1.2 1.2 1.2 1.2 1.2 1.2 1.2 1.2 1.2 1.2 1.2 1.2 1.2 1.2 1.2 1.2 1.2 1.2 1.2 </DataArray>
</PointData>
<CellData/>
</Piece>
</UnstructuredGrid>
</VTKFile>
