<?xml version="1.0" ?>
<VTKFile byte_order="LittleEndian" type="UnstructuredGrid" version="0.1">
<UnstructuredGrid>
<Piece NumberOfCells="0" NumberOfPoints="20">
<Points>
<DataArray NumberOfComponents="3" format="ascii" type="Float32">6.6867177491336101 1.4 2 32.575025616528251 1.4 2 75.77697408946571 1.4 2 78.420911007626785 1.4 2 87.886193636707816 3.8213966553168515 2 3.8443684116070651 1.4 2 35.350961454624539 1.4 2 70.475496853242646 1.4 2 83.771222805262298 1.4 2 85.084607449262478 3.8815925774069799 2 8.777954133371269 3.2464549552389688 2 30.883655470452759 3.6225029005509555 2 74.342118415669319 3.8721194592747596 2 77.112256746186873 3.8398923019670805 2 89.290870095780392 1.4 2 5.2771407235466397 3.8020878754580498 2 35.74375380680484 4.1536589080562276 2 73.006813189107717 1.4 2 81.168926824041804 1.4 2 86.60475068285615 1.4 2 </DataArray>
</Points>
<Cells>
<DataArray Name="connectivity" format="ascii" type="Int32">0</DataArray>
<DataArray Name="offsets" format="ascii" type="Int32">0</DataArray>
<DataArray Name="types" format="ascii" type="UInt8">1</DataArray>
</Cells>
<PointData>
<DataArray Name="Points" NumberOfComponents="3" format="ascii" type="Float32">6.6867177491336101 1.4 2 32.575025616528251 1.4 2 75.77697408946571 1.4 2 78.420911007626785 1.4 2 87.886193636707816 3.8213966553168515 2 3.8443684116070651 1.4 2 35.350961454624539 1.4 2 70.475496853242646 1.4 2 83.771222805262298 1.4 2 85.084607449262478 3.8815925774069799 2 8.777954133371269 3.2464549552389688 2 30.883655470452759 3.6225029005509555 2 74.342118415669319 3.8721194592747596 2 77.112256746186873 3.8398923019670805 2 89.290870095780392 1.4 2 5.2771407235466397 3.8020878754580498 2 35.74375380680484 4.1536589080562276 2 73.006813189107717 1.4 2 81.168926824041804 1.4 2 86.60475068285615 1.4 2 </DataArray>
<DataArray Name="forces" NumberOfComponents="3" format="ascii" type="Float32">-0.0029153506407366362 -0.040367365023855004 0.0 0.00049693726220122018 -0.0067159570951396451 0.0 0.026990122691575913 -0.0066580974808278549 0.0 -0.016068239848250135 -0.027027678474118747 0.0 0.018041023115628739 0.032422269042720712 0.0 -0.0071574136731542125 -0.011930530108180397 0.0 -0.0060977792101378145 -0.036459787660246053 0.0 0.077977271995217534 -0.032621913856789031 0.0 -0.041364819630440391 -0.044594622632597627 0.0 0.022338076567616459 0.044594622632597627 0.0 -0.0075765556057646177 0.047718966146875458 0.0 0.0028815014466887102 0.031016731974657794 0.0 0.014069660648534172 0.043772021476515703 0.0 -0.0027448628374614065 0.033629102630313233 0.0 -0.006671351241096888 -0.021623321098356792 0.0 -0.0075664473634909357 0.03699244814248312 0.0 -0.0094553204489944784 0.04401753934859394 0.0 -0.052356551498996248 -0.043715348151882334 0.0 0.04605313590410276 0.0 0.0 0.066362084799706594 -0.032422269042720712 0.0 </DataArray>
<DataArray Name="radii" format="ascii" type="Float32">1.4 1.4 1.4 1.4 1.4 1.4 1.4 1.4 1.4 1.4 1.4 1.4 1.4 1.4 1.4 1.4 1.4 1.4 1.4 1.4 </DataArray>
</PointData>
<CellData/>
</Piece>
</UnstructuredGrid>
</VTKFile>
