<?xml version="1.0" ?>
<VTKFile byte_order="LittleEndian" type="UnstructuredGrid" version="0.1">
<UnstructuredGrid>
<Piece NumberOfCells="0" NumberOfPoints="20">
<Points>
<DataArray NumberOfComponents="3" format="ascii" type="Float32">7.6021419706576223 1.0092332084510895 2 32.391456786944779 1 2 75.211204594082048 1.6571375719579378 2 78.920717592247314 1 2 87.534975636368173 3.0758855668556726 2 4.7446783188719657 1.3824688299092067 2 34.83553069332801 1.1342985373925423 2 71.142040391520894 1.4147087884293488 2 82.761486414097817 1.6928692672438181 2 84.674855791615627 2.2263750305138683 2 8.9161457157032142 2.5175058948771634 2 31.382138531011666 2.7205427429891467 2 73.784360672228473 3.0600125857682174 2 77.58840383599555 2.4817873926028184 2 89.412917107964589 2.7532449552292824 2 4.8441127768978172 3.3803690093901215 2 36.255463141788454 2.5562542117282772 2 73.127538087551656 1.1708230188018032 2 80.878865637950994 1 2 86.244738263933883 1 2 </DataArray>
</Points>
<Cells>
<DataArray Name="connectivity" format="ascii" type="Int32">0</DataArray>
<DataArray Name="offsets" format="ascii" type="Int32">0</DataArray>
<DataArray Name="types" format="ascii" type="UInt8">1</DataArray>
</Cells>
<PointData>
<DataArray Name="Points" NumberOfComponents="3" format="ascii" type="Float32">7.6021419706576223 1.0092332084510895 2 32.391456786944779 1 2 75.211204594082048 1.6571375719579378 2 78.920717592247314 1 2 87.534975636368173 3.0758855668556726 2 4.7446783188719657 1.3824688299092067 2 34.83553069332801 1.1342985373925423 2 71.142040391520894 1.4147087884293488 2 82.761486414097817 1.6928692672438181 2 84.674855791615627 2.2263750305138683 2 8.9161457157032142 2.5175058948771634 2 31.382138531011666 2.7205427429891467 2 73.784360672228473 3.0600125857682174 2 77.58840383599555 2.4817873926028184 2 89.412917107964589 2.7532449552292824 2 4.8441127768978172 3.3803690093901215 2 36.255463141788454 2.5562542117282772 2 73.127538087551656 1.1708230188018032 2 80.878865637950994 1 2 86.244738263933883 1 2 </DataArray>
<DataArray Name="forces" NumberOfComponents="3" format="ascii" type="Float32">0.0 0.0 0.0 0.0031393355208518448 -0.0054160512341821336 0.0 0.0 0.0 0.0 -0.0031129252925412541 -0.007528894165722267 0.0 0.0 0.0 0.0 0.0 0.0 0.0 0.0 0.0 0.0 0.0 0.0 0.0 0.006808126555272933 0.005573557325378317 0.0 0.013414933697988364 0.018121171084160479 0.0 0.0 0.0 0.0 -0.0031393355208518448 0.0054160512341821336 0.0 0.0 0.0 0.0 -0.0067362135307573769 0.007528894165722267 0.0 -0.059749517521397386 0.022635715945039502 0.0 0.0 0.0 0.0 -0.026368066899550423 0.032451795220057526 0.0 0.0 0.0 0.0 -0.024278687331422286 -0.012958791155451177 0.0 0.01390476590145962 -0.010735937254087618 0.0 </DataArray>
<DataArray Name="radii" format="ascii" type="Float32">1 1 1 1 1 1 1 1 1 1 1 1 1 1 1 1 1 1 1 1 </DataArray>
</PointData>
<CellData/>
</Piece>
</UnstructuredGrid>
</VTKFile>
