<?xml version="1.0" ?>
<VTKFile byte_order="LittleEndian" type="UnstructuredGrid" version="0.1">
<UnstructuredGrid>
<Piece NumberOfCells="0" NumberOfPoints="86">
<Points>
<DataArray NumberOfComponents="3" format="ascii" type="Float32">8.3297486551046394 1.5999999999999999 2 30.462811347912485 1.5999999999999999 2 76.983422108057894 1.5999999999999999 2 79.680200582375903 3.0928669853700508 2 87.667307274145656 3.8962051417796331 2 1.5999999999999999 1.5999999999999999 2 33.427460066468555 1.7862816412860989 2 68.85565432092578 1.5999999999999999 2 84.955246763700529 1.5999999999999999 2 86.466945014501405 8.6129834740592717 2 5.6774644101611305 7.294054698130469 2 31.874162901737154 8.3574799166779528 2 74.923533470944477 8.8747450859737818 2 79.38354213301767 6.6062363853828829 2 92.170471788622351 4.7867695329222766 2 3.6977644890114623 5.7688390613435443 2 34.297925252568582 4.0551627466120896 2 70.637486969600516 1.5999999999999999 2 81.296624751572963 7.9144579857027457 2 86.657125109584172 1.5999999999999999 2 5.3546718627581971 1.5999999999999999 2 29.750223858178703 3.1794164423495639 2 74.621311477887716 3.2065086108393901 2 78.420393336912227 4.5802203898900036 2 89.384850530935111 9.0591521086346649 2 3.6427203030426218 1.5999999999999999 2 37.555670888242062 3.2364265528796845 2 71.276580297288589 4.5102478600352827 2 85.759309310849403 3.4901734540359008 2 83.874172514085913 8.0788015431034257 2 8.0817481358244496 4.0388681849743433 2 28.94673983127139 8.2119398844058473 2 71.411952207468744 9.4073767308620688 2 76.146147748713346 4.3958002981386839 2 92.344295297214202 1.5999999999999999 2 94.588178851702963 1.5999999999999999 2 1.5999999999999999 4.7345555024342607 2 35.698052228998314 7.66635055726967 2 73.094455261331689 4.2498297044252267 2 81.166724064915854 1.5999999999999999 2 90.875435853169947 2.5964313364666243 2 9.5593505577575169 2.5687124321497858 2 32.094845276354235 1.5999999999999999 2 77.345001517135231 2.748648329430857 2 79.200316649083433 1.5999999999999999 2 89.580811769536965 4.2514135799080934 2 1.5999999999999999 2.8991054482763725 2 10.687854634183465 7.5403282772360605 2 34.903816292899023 1.5999999999999999 2 68.768457409599662 5.0060673597979397 2 69.654868791410649 3.1687349565631284 2 83.355185172949163 1.5999999999999999 2 88.019676037723883 6.3863217576036062 2 8.1133694661053255 8.9910638733033039 2 33.330008188277183 6.174681794363555 2 74.666663164166209 6.0591532323288435 2 78.184633312347117 9.2494457218214698 2 90.633502897909878 6.6243549836765174 2 6.0225799761429775 4.3560697665313546 2 31.839226963612035 4.0413123449829724 2 73.351779526154303 1.5999999999999999 2 83.832058223956423 3.7640496843268254 2 88.174828451950319 1.5999999999999999 2 6.7480164152035247 1.5999999999999999 2 26.391815846089056 4.4417947144427448 2 30.348670055880309 5.829644465782911 2 75.07190896305741 1.5999999999999999 2 81.03477182551616 4.8153907433451772 2 93.203443188401906 7.5514708147522542 2 4.0783851683706382 3.4412226767476173 2 36.189701954637137 1.7747983937959011 2 69.999628008458018 6.8789950001393452 2 85.566777897956499 5.835284814386287 2 82.994696104552901 5.6100428753566431 2 8.2512481085539751 6.22024605976722 2 27.261948634827547 6.3943998363144861 2 72.575016185230382 6.9584481912253482 2 76.928658989847463 6.801401809154628 2 93.356792965607525 3.3026024462179655 2 95.331060518439656 3.3611460266724889 2 1.5999999999999999 7.4861314336472313 2 36.135162912107468 4.8100391036669201 2 72.009174343583766 1.7017849420659164 2 82.055012402910208 2.8153511563684432 2 89.746905851362456 1.5999999999999999 2 96.086708685787116 5.4064331573479967 2 </DataArray>
</Points>
<Cells>
<DataArray Name="connectivity" format="ascii" type="Int32">0</DataArray>
<DataArray Name="offsets" format="ascii" type="Int32">0</DataArray>
<DataArray Name="types" format="ascii" type="UInt8">1</DataArray>
</Cells>
<PointData>
<DataArray Name="Points" NumberOfComponents="3" format="ascii" type="Float32">8.3297486551046394 1.5999999999999999 2 30.462811347912485 1.5999999999999999 2 76.983422108057894 1.5999999999999999 2 79.680200582375903 3.0928669853700508 2 87.667307274145656 3.8962051417796331 2 1.5999999999999999 1.5999999999999999 2 33.427460066468555 1.7862816412860989 2 68.85565432092578 1.5999999999999999 2 84.955246763700529 1.5999999999999999 2 86.466945014501405 8.6129834740592717 2 5.6774644101611305 7.294054698130469 2 31.874162901737154 8.3574799166779528 2 74.923533470944477 8.8747450859737818 2 79.38354213301767 6.6062363853828829 2 92.170471788622351 4.7867695329222766 2 3.6977644890114623 5.7688390613435443 2 34.297925252568582 4.0551627466120896 2 70.637486969600516 1.5999999999999999 2 81.296624751572963 7.9144579857027457 2 86.657125109584172 1.5999999999999999 2 5.3546718627581971 1.5999999999999999 2 29.750223858178703 3.1794164423495639 2 74.621311477887716 3.2065086108393901 2 78.420393336912227 4.5802203898900036 2 89.384850530935111 9.0591521086346649 2 3.6427203030426218 1.5999999999999999 2 37.555670888242062 3.2364265528796845 2 71.276580297288589 4.5102478600352827 2 85.759309310849403 3.4901734540359008 2 83.874172514085913 8.0788015431034257 2 8.0817481358244496 4.0388681849743433 2 28.94673983127139 8.2119398844058473 2 71.411952207468744 9.4073767308620688 2 76.146147748713346 4.3958002981386839 2 92.344295297214202 1.5999999999999999 2 94.588178851702963 1.5999999999999999 2 1.5999999999999999 4.7345555024342607 2 35.698052228998314 7.66635055726967 2 73.094455261331689 4.2498297044252267 2 81.166724064915854 1.5999999999999999 2 90.875435853169947 2.5964313364666243 2 9.5593505577575169 2.5687124321497858 2 32.094845276354235 1.5999999999999999 2 77.345001517135231 2.748648329430857 2 79.200316649083433 1.5999999999999999 2 89.580811769536965 4.2514135799080934 2 1.5999999999999999 2.8991054482763725 2 10.687854634183465 7.5403282772360605 2 34.903816292899023 1.5999999999999999 2 68.768457409599662 5.0060673597979397 2 69.654868791410649 3.1687349565631284 2 83.355185172949163 1.5999999999999999 2 88.019676037723883 6.3863217576036062 2 8.1133694661053255 8.9910638733033039 2 33.330008188277183 6.174681794363555 2 74.666663164166209 6.0591532323288435 2 78.184633312347117 9.2494457218214698 2 90.633502897909878 6.6243549836765174 2 6.0225799761429775 4.3560697665313546 2 31.839226963612035 4.0413123449829724 2 73.351779526154303 1.5999999999999999 2 83.832058223956423 3.7640496843268254 2 88.174828451950319 1.5999999999999999 2 6.7480164152035247 1.5999999999999999 2 26.391815846089056 4.4417947144427448 2 30.348670055880309 5.829644465782911 2 75.07190896305741 1.5999999999999999 2 81.03477182551616 4.8153907433451772 2 93.203443188401906 7.5514708147522542 2 4.0783851683706382 3.4412226767476173 2 36.189701954637137 1.7747983937959011 2 69.999628008458018 6.8789950001393452 2 85.566777897956499 5.835284814386287 2 82.994696104552901 5.6100428753566431 2 8.2512481085539751 6.22024605976722 2 27.261948634827547 6.3943998363144861 2 72.575016185230382 6.9584481912253482 2 76.928658989847463 6.801401809154628 2 93.356792965607525 3.3026024462179655 2 95.331060518439656 3.3611460266724889 2 1.5999999999999999 7.4861314336472313 2 36.135162912107468 4.8100391036669201 2 72.009174343583766 1.7017849420659164 2 82.055012402910208 2.8153511563684432 2 89.746905851362456 1.5999999999999999 2 96.086708685787116 5.4064331573479967 2 </DataArray>
<DataArray Name="forces" NumberOfComponents="3" format="ascii" type="Float32">0.0020713545018944401 -1.6254885296907318 0.0 -0.19290226191367088 -1.4442318094706497 0.0 -0.030945887076949008 -2.4255127187917198 0.0 0.043755654942026267 0.85044617733798988 0.0 0.18047238877868049 0.64481751088916206 0.0 -1.2449584955047468 -2.0355556843434117 0.0 -0.083356129605401175 -0.45617219016244498 0.0 -0.059958680424340362 -1.6750687567781934 0.0 0.050205660413985193 -1.7607223984571421 0.0 0.10488756449376727 0.73888728475909815 0.0 -0.044181812517329278 0.69448134059942956 0.0 0.076195239725701192 0.70467091128140469 0.0 -0.052957442790772163 0.70540568506727719 0.0 0.02114198996389649 0.59860220667790787 0.0 0.026612921197192052 0.66828177446679637 0.0 0.054470095586636569 0.72271794641872811 0.0 -0.048493183644293225 0.33610681739145049 0.0 -0.23483004993137779 -1.587313860820101 0.0 -0.081634931061422861 0.82344348766910946 0.0 -0.10113674299504694 -1.6343892023381725 0.0 -0.088965989418589797 -1.1286260772457783 0.0 0.011614431220408339 0.8934204100455917 0.0 -0.12784065482866211 0.85931233776316107 0.0 -0.064711544452646375 0.72036011663106336 0.0 0.12518974842945868 0.626141293193065 0.0 -0.073265825205645507 -1.6916331929432196 0.0 -0.19102696369976579 0.76876529524877679 0.0 0.12980392057696732 0.46939666123553558 0.0 0.068199527929790296 0.94630087991128198 0.0 0.034940335308599801 0.78412465664386588 0.0 -0.039323925529116177 0.59232581221685154 0.0 -0.001902091620373636 0.89614637359621896 0.0 -7.7365276230867419e-05 0.71850675306059864 0.0 -0.015670204547102273 0.7490101667462048 0.0 0.20139610692787224 -1.852906574560218 0.0 0.14867594395385442 -1.9840721892907802 0.0 -1.1327182822228652 0.78622720231410326 0.0 -0.056915649784010584 0.75342130609012559 0.0 -0.22687951277317453 0.4812505625435245 0.0 -0.0049267235134086151 -2.1467010900560997 0.0 0.13587945143289026 0.45389944195914367 0.0 0.042228942956538756 0.58578281373858376 0.0 -0.27924242804095317 -1.2966563364546051 0.0 0.05642285525158619 0.66925227378526742 0.0 0.056912491508444144 -2.2436557568922835 0.0 0.1472881751901986 0.70214430366659852 0.0 -1.3053857358075573 0.81198641676723848 0.0 -0.082851078143751311 0.76406662772691214 0.0 0.025504494057873917 -1.2128023902522578 0.0 0.05297815665356536 0.81150022554162227 0.0 0.081817349723535604 0.8891477966458543 0.0 0.12508145819427674 -2.0216183711287932 0.0 0.050318459761806489 0.64786341104043288 0.0 -0.041524595506983453 0.67761807079242375 0.0 0.085057411191063997 0.65060058099664742 0.0 -0.074478854749514767 0.69231784581789024 0.0 0.07798977892574048 0.67117896567588942 0.0 0.071563886079142713 0.64510465006513762 0.0 0.066002260750042036 0.60976147320538443 0.0 0.18975227659373084 0.66801823553451412 0.0 0.20961773851793963 -1.6738995488035751 0.0 0.0284835636304972 0.84946639014546066 0.0 -0.050966307531621124 -1.1882008446912713 0.0 -0.037026046839254687 -0.75948813163199946 0.0 -0.047205540760771894 0.81494786156660948 0.0 0.045386216990452997 0.81039380834252051 0.0 0.083521974025829226 -1.9736890277400683 0.0 0.069897246331307172 0.7109373080447865 0.0 0.07360864600621958 0.73474463252707456 0.0 0.042510511891180047 0.80631524692826673 0.0 -0.0031498104987131071 0.050126607704956333 0.0 0.033576845055861948 0.70477618957588239 0.0 0.10045247779938138 0.78033315741337317 0.0 -0.0074825485119877216 0.8462966904362127 0.0 -0.11513703847744897 0.63568313059401815 0.0 0.078408079722271068 0.74477359917699271 0.0 -0.027099502271211828 0.65757644823318995 0.0 -0.026136822346892491 0.76076613862768583 0.0 0.08480579831904711 0.8248028742552963 0.0 0.020992258395100938 0.84512724203111989 0.0 -0.38157438407244654 0.7591349605198805 0.0 -0.060923474922398101 0.61202399553982723 0.0 -0.017944590919404868 -0.60573140233524547 0.0 0.11428193314490027 0.65708799046907973 0.0 -0.027021131850575308 -1.7355496496926135 0.0 0.00078405281370069746 0.85468577265700918 0.0 </DataArray>
<DataArray Name="radii" format="ascii" type="Float32">1.5999999999999999 1.5999999999999999 1.5999999999999999 1.5999999999999999 1.5999999999999999 1.5999999999999999 1.5999999999999999 1.5999999999999999 1.5999999999999999 1.5999999999999999 1.5999999999999999 1.5999999999999999 1.5999999999999999 1.5999999999999999 1.5999999999999999 1.5999999999999999 1.5999999999999999 1.5999999999999999 1.5999999999999999 1.5999999999999999 1.5999999999999999 1.5999999999999999 1.5999999999999999 1.5999999999999999 1.5999999999999999 1.5999999999999999 1.5999999999999999 1.5999999999999999 1.5999999999999999 1.5999999999999999 1.5999999999999999 1.5999999999999999 1.5999999999999999 1.5999999999999999 1.5999999999999999 1.5999999999999999 1.5999999999999999 1.5999999999999999 1.5999999999999999 1.5999999999999999 1.5999999999999999 1.5999999999999999 1.5999999999999999 1.5999999999999999 1.5999999999999999 1.5999999999999999 1.5999999999999999 1.5999999999999999 1.5999999999999999 1.5999999999999999 1.5999999999999999 1.5999999999999999 1.5999999999999999 1.5999999999999999 1.5999999999999999 1.5999999999999999 1.5999999999999999 1.5999999999999999 1.5999999999999999 1.5999999999999999 1.5999999999999999 1.5999999999999999 1.5999999999999999 1.5999999999999999 1.5999999999999999 1.5999999999999999 1.5999999999999999 1.5999999999999999 1.5999999999999999 1.5999999999999999 1.5999999999999999 1.5999999999999999 1.5999999999999999 1.5999999999999999 1.5999999999999999 1.5999999999999999 1.5999999999999999 1.5999999999999999 1.5999999999999999 1.5999999999999999 1.5999999999999999 1.5999999999999999 1.5999999999999999 1.5999999999999999 1.5999999999999999 1.5999999999999999 </DataArray>
</PointData>
<CellData/>
</Piece>
</UnstructuredGrid>
</VTKFile>
