<?xml version="1.0" ?>
<VTKFile byte_order="LittleEndian" type="UnstructuredGrid" version="0.1">
<UnstructuredGrid>
<Piece NumberOfCells="0" NumberOfPoints="47">
<Points>
<DataArray NumberOfComponents="3" format="ascii" type="Float32">22.640926773675769 1.5999999999999999 2 45.089379607718193 1.5999999999999999 2 53.623240237796317 4.2202963778073688 2 61.063584034927167 4.260516918811649 2 18.6456229021185 5.3930481228738172 2 43.612847518200567 4.129576333700065 2 44.427869158598753 6.9357920501714991 2 52.429617174276167 1.5999999999999999 2 62.503190053137516 6.9851166904367101 2 98.4 4.6584777308002705 2 12.728298487579934 1.5999999999999999 2 16.313057147351191 4.024803046520252 2 23.727666725486461 4.4056467581559913 2 47.526449983326295 1.5999999999999999 2 56.623081951036369 6.9509224731442361 2 57.343508662993138 1.5999999999999999 2 15.216783214172429 6.7831606694243645 2 21.642932173451506 6.7751955269913156 2 47.505526969356332 7.0558361139849683 2 53.593965508729745 7.116910064526496 2 62.284364456097727 1.5999999999999999 2 64.777118956637565 1.5999999999999999 2 20.038254555107695 1.5999999999999999 2 42.59527797749633 1.5999999999999999 2 54.86565369883531 1.5999999999999999 2 59.799854390537831 1.5999999999999999 2 13.421518278510458 4.2819044335588563 2 18.821391884524171 8.3295344424182964 2 40.243533637554073 1.5999999999999999 2 46.18632771201105 4.3043386127137175 2 49.955235192293749 1.5999999999999999 2 59.580462828122208 7.0062875199335188 2 65.487622188105505 6.8333743719492022 2 98.4 1.5999999999999999 2 17.6797462155671 1.5999999999999999 2 25.136230795420971 1.5999999999999999 2 48.754949646275783 4.3051029788962802 2 56.020712613491547 4.1385965022539031 2 58.489356101176305 4.2591152139294453 2 15.106306623421107 1.5999999999999999 2 20.946327985456339 3.9405413594999956 2 27.748493257282284 1.5999999999999999 2 41.057145847612716 4.4282739792868826 2 51.225016899723293 4.1413800102228686 2 50.538422508299142 6.9489544798357556 2 63.693599913113253 4.2443991363689006 2 66.327556852799802 4.0159010657427574 2 </DataArray>
</Points>
<Cells>
<DataArray Name="connectivity" format="ascii" type="Int32">0</DataArray>
<DataArray Name="offsets" format="ascii" type="Int32">0</DataArray>
<DataArray Name="types" format="ascii" type="UInt8">1</DataArray>
</Cells>
<PointData>
<DataArray Name="Points" NumberOfComponents="3" format="ascii" type="Float32">22.640926773675769 1.5999999999999999 2 45.089379607718193 1.5999999999999999 2 53.623240237796317 4.2202963778073688 2 61.063584034927167 4.260516918811649 2 18.6456229021185 5.3930481228738172 2 43.612847518200567 4.129576333700065 2 44.427869158598753 6.9357920501714991 2 52.429617174276167 1.5999999999999999 2 62.503190053137516 6.9851166904367101 2 98.4 4.6584777308002705 2 12.728298487579934 1.5999999999999999 2 16.313057147351191 4.024803046520252 2 23.727666725486461 4.4056467581559913 2 47.526449983326295 1.5999999999999999 2 56.623081951036369 6.9509224731442361 2 57.343508662993138 1.5999999999999999 2 15.216783214172429 6.7831606694243645 2 21.642932173451506 6.7751955269913156 2 47.505526969356332 7.0558361139849683 2 53.593965508729745 7.116910064526496 2 62.284364456097727 1.5999999999999999 2 64.777118956637565 1.5999999999999999 2 20.038254555107695 1.5999999999999999 2 42.59527797749633 1.5999999999999999 2 54.86565369883531 1.5999999999999999 2 59.799854390537831 1.5999999999999999 2 13.421518278510458 4.2819044335588563 2 18.821391884524171 8.3295344424182964 2 40.243533637554073 1.5999999999999999 2 46.18632771201105 4.3043386127137175 2 49.955235192293749 1.5999999999999999 2 59.580462828122208 7.0062875199335188 2 65.487622188105505 6.8333743719492022 2 98.4 1.5999999999999999 2 17.6797462155671 1.5999999999999999 2 25.136230795420971 1.5999999999999999 2 48.754949646275783 4.3051029788962802 2 56.020712613491547 4.1385965022539031 2 58.489356101176305 4.2591152139294453 2 15.106306623421107 1.5999999999999999 2 20.946327985456339 3.9405413594999956 2 27.748493257282284 1.5999999999999999 2 41.057145847612716 4.4282739792868826 2 51.225016899723293 4.1413800102228686 2 50.538422508299142 6.9489544798357556 2 63.693599913113253 4.2443991363689006 2 66.327556852799802 4.0159010657427574 2 </DataArray>
<DataArray Name="forces" NumberOfComponents="3" format="ascii" type="Float32">0.0056654781984843972 -0.42753069146544415 0.0 -0.026225121156411332 -0.49407954989576208 0.0 0.0068368264949832946 0.31366181783586061 0.0 0.034400056884831276 0.307564519638372 0.0 0.0085790347057702609 0.25006509195359283 0.0 -0.033318931140115859 0.29048527355220721 0.0 -0.063850831627303151 0.29114388720636108 0.0 -0.0055240799608000379 -0.64400158154796938 0.0 0.038125970650623217 0.30869246791302291 0.0 0.38805856163800656 0.27283437030205004 0.0 0.0093570983290142129 -0.41652407931036151 0.0 -0.031603461695844021 0.3107593629174325 0.0 0.01764262944978362 0.29670443397422691 0.0 -0.022198098140579978 -0.37258064096071475 0.0 -0.0079039707241983642 0.30348600603936304 0.0 0.01397041013348771 -0.57805686768385534 0.0 -0.014240552905200612 0.31448433105576434 0.0 0.038944607964663612 0.30580130576000386 0.0 -0.057023472064362896 0.30871307951656574 0.0 -0.03033966372493363 0.3213751831422243 0.0 0.026264050114332443 -0.42921251791346882 0.0 0.02747547160960076 -0.54108279882289212 0.0 -0.0055933388913654292 -0.64558391262415571 0.0 -0.034586740236527636 -0.43772620985314142 0.0 -9.3069898442182941e-05 -0.64671696210713869 0.0 0.023109276003128884 -0.44212310338538796 0.0 -0.031908711197455128 0.31686991163978923 0.0 0.015436184072353882 0.25947151157957682 0.0 -0.036917127377714687 -0.15898985929114212 0.0 -0.031604966192444905 0.30264375334050586 0.0 -0.017943855517399104 -0.54214835927262195 0.0 0.018232507288414398 0.30406012124854226 0.0 0.048964065738651197 0.30260905646175995 0.0 0.58588544983110913 -0.028502625186777722 0.0 -0.010932937607353477 -0.36576259588805238 0.0 0.010641582044285114 -0.3071559210111155 0.0 -0.02638404706052903 0.30598803147827125 0.0 0.02003794357885158 0.29333466778148243 0.0 0.028816176610777955 0.29932263018362909 0.0 -0.0059784292795185268 -0.47082506058873735 0.0 0.031275437282439034 0.30221133137617473 0.0 0.012806658594394449 -0.51702519276892855 0.0 -0.042874483941588326 0.27621747773211019 0.0 -0.0089677260663917208 0.29533641335993011 0.0 -0.043675030694585421 0.29530013462957311 0.0 0.038408115689788969 0.30538443740742016 0.0 0.03962772114969737 0.30084197250942341 0.0 </DataArray>
<DataArray Name="radii" format="ascii" type="Float32">1.5999999999999999 1.5999999999999999 1.5999999999999999 1.5999999999999999 1.5999999999999999 1.5999999999999999 1.5999999999999999 1.5999999999999999 1.5999999999999999 1.5999999999999999 1.5999999999999999 1.5999999999999999 1.5999999999999999 1.5999999999999999 1.5999999999999999 1.5999999999999999 1.5999999999999999 1.5999999999999999 1.5999999999999999 1.5999999999999999 1.5999999999999999 1.5999999999999999 1.5999999999999999 1.5999999999999999 1.5999999999999999 1.5999999999999999 1.5999999999999999 1.5999999999999999 1.5999999999999999 1.5999999999999999 1.5999999999999999 1.5999999999999999 1.5999999999999999 1.5999999999999999 1.5999999999999999 1.5999999999999999 1.5999999999999999 1.5999999999999999 1.5999999999999999 1.5999999999999999 1.5999999999999999 1.5999999999999999 1.5999999999999999 1.5999999999999999 1.5999999999999999 1.5999999999999999 1.5999999999999999 </DataArray>
</PointData>
<CellData/>
</Piece>
</UnstructuredGrid>
</VTKFile>
