<?xml version="1.0" ?>
<VTKFile byte_order="LittleEndian" type="UnstructuredGrid" version="0.1">
<UnstructuredGrid>
<Piece NumberOfCells="0" NumberOfPoints="160">
<Points>
<DataArray NumberOfComponents="3" format="ascii" type="Float32">52.005746491174193 5.3034488086330329 2 16.214593555832668 6.9031082814412379 2 51.72828315126327 2.5492518063449525 2 63.597964452153356 8.2218765224758634 2 45.614327839799955 3.2793379083434151 2 57.957819119881727 8.2515335247825732 2 58.277577436805963 1.2 2 14.856758655199229 6.332047199713764 2 44.467491133565311 8.7965690428795575 2 53.168470489120125 10.350116208935177 2 53.632093281908425 1.2 2 19.435916416831489 9.8780525211156753 2 47.853133828965106 2.9885154777879896 2 57.702233681448206 9.5675126689854881 2 46.58585176457656 5.527821704489825 2 58.539654261930629 5.5528114527920369 2 59.377902632768922 6.7264384993219695 2 51.392439417340142 3.4548821293625722 2 48.051898495721687 8.7952672879344078 2 54.440654978873155 5.7729119221397838 2 19.178582729726248 4.1364268629473866 2 51.412726824710823 1.2 2 63.043416016222814 10.458590017229252 2 47.179259466439987 1.2 2 56.281562463558387 8.8088504411385511 2 56.259107412830602 1.2 2 45.532737938839198 10.592598843660067 2 52.4398480267431 8.824731545221475 2 55.996106672564693 3.7937698609077279 2 60.482428250132294 1.2 2 44.99394726731375 6.103920609483426 2 49.592548748528891 1.2 2 61.341087850086808 7.7328211953205015 2 17.747233864011015 1.2 2 49.924063462471409 5.0292385894455292 2 57.056207496729662 3.6288190420729998 2 58.474262691176627 2.5388288337506273 2 21.273114394720256 6.0587393433791714 2 51.75961053204751 6.4097934823886131 2 50.85739733813169 8.6114882426265886 2 53.15645014969855 4.7083681706106333 2 60.578703413570942 4.8043705016236649 2 18.970964977444943 5.5247444715266782 2 43.62997661035773 10.318099230750136 2 55.000600623437556 3.5878559363985403 2 16.521663569973487 5.3367803977023405 2 46.612618607844681 3.3589871478924134 2 60.089342087878045 7.7963921304929968 2 56.918023419291295 1.2 2 46.6412075777559 7.7152558212363855 2 56.32354510896203 12.623657326910088 2 53.403599429329404 2.6573097480791055 2 18.699653491432741 8.2370155550928601 2 45.806941425129835 1.8383561919270002 2 60.193264086245449 11.414365387134312 2 48.722292976649413 4.8793035007914121 2 56.304526418496181 5.7862351381499826 2 61.048446176792226 6.1982278404200439 2 49.765915479965336 2.7946182223030549 2 47.729673121446531 7.1702678240619475 2 45.493200776999224 1.2 2 53.122264243465729 5.9240055012553956 2 20.50980857904911 4.244129037650362 2 52.060566476723196 1.2 2 65.239029471353973 10.645585458247041 2 44.790190122126155 2.5326524730092808 2 55.912717341235101 7.5760494143071329 2 54.920617810771716 1.2 2 49.239009332678037 11.923336775437134 2 54.536926678968349 7.7254968840917471 2 18.437619647161394 2.7063974203066556 2 55.95293136346482 2.7731340972939313 2 59.571953095390434 1.2 2 43.651910446580963 6.9713122363643718 2 48.923565260995318 1.2 2 62.179573491797164 6.8987576358785834 2 48.77122863033604 3.56675090557298 2 59.004072462675843 4.6777649732537894 2 49.900389184567992 6.7242303371904413 2 52.074404498315296 12.012452412716804 2 52.124384714288965 4.2876606295324438 2 17.591681522144661 7.1079360828562068 2 42.580593619355646 8.9109940002705645 2 52.969898559666369 1.2 2 46.800820933705609 4.5050556634578367 2 58.223294693367876 7.0237409939986764 2 56.981997219358909 2.2700471800972291 2 22.399165372397615 11.554834329689237 2 46.230933022005431 8.9647955796217538 2 54.595877465977814 11.340505236962162 2 55.134987056929596 2.2653197405092684 2 48.186792597121432 1.2 2 58.736405410123595 10.763379179457539 2 45.674971223411163 4.5321967887430858 2 57.435451612263208 5.645632188363602 2 60.032604494365835 5.717175984529562 2 22.178701929128525 5.1656270677459153 2 50.786543752161762 4.4410285837794508 2 47.674674781504528 10.23187218791006 2 55.315465524985733 6.4997597459799792 2 18.151794229482199 3.8764452165863355 2 50.189842608669615 1.2 2 62.005353759438954 11.808701996142959 2 48.895470567036405 2.4089407453330711 2 55.132573974013468 9.5780336656410352 2 57.604858879184569 1.2 2 46.954010318274065 12.035887862849036 2 52.471039135894401 7.4772533828684544 2 19.508179034910789 2.7601409364597695 2 56.725003440753724 4.7606939825054431 2 45.987194660273602 6.5868857666884413 2 50.787315920976944 1.2 2 62.169222568707241 8.9410904122780472 2 18.430961931976753 1.2 2 50.741045611209991 5.7772407023977097 2 57.631378870379621 2.9351310426786701 2 59.433154676538337 2.6444193461550589 2 20.190456476992111 5.5379380896430241 2 51.034857701666347 7.3954588588893131 2 49.463988227345183 8.6975810347161477 2 53.711571673498653 3.6623507155730914 2 59.179321411529848 3.5532207767951425 2 17.979180533101239 5.9219650398467198 2 42.768916594766431 11.978358193937808 2 54.300603594924787 4.6921676949055708 2 15.405044946138867 5.0149405948349237 2 47.847222322274227 4.1210050281067439 2 59.415879269456397 8.8982997882241026 2 55.605080479043764 1.2 2 44.83885601508856 7.6469306652698892 2 56.631003360768389 10.792323249452734 2 52.647952498554893 1.8260380843016963 2 19.698328454718251 7.1368386011000302 2 44.644128969226216 4.7913958855172769 2 46.816779707630076 2.5134548839276345 2 60.853734055067072 9.7481878634230341 2 17.150423155189312 4.4795098556935722 2 48.824430127522504 5.8622990167075786 2 55.384272902601538 4.8800185742839552 2 50.709960957651994 2.6809185862203351 2 47.674652775813975 5.8060078032121245 2 46.453559046679239 1.2 2 53.617204074300936 6.9165958640370091 2 21.723092356327875 3.9597360134388166 2 52.611279817678387 3.2381424496330147 2 44.404289136401133 3.4990051212957853 2 57.036986982206038 7.0345464090094181 2 54.343216553230214 2.782405945460765 2 23.166069775533181 4.2275518851113745 2 49.599993169060426 10.233162952192254 2 53.91012923064158 8.7719648092118003 2 17.377274648290509 2.604268688846942 2 54.272470584695427 1.2 2 58.911294566070396 1.2 2 47.786800972990903 1.7021109270529893 2 49.890812810540403 3.764350959631801 2 58.071022476419479 4.1424593602588446 2 60.301384721157881 3.7824402784326989 2 48.986652554189597 7.3233999046464646 2 51.230450104596308 10.278127685125799 2 </DataArray>
</Points>
<Cells>
<DataArray Name="connectivity" format="ascii" type="Int32">0</DataArray>
<DataArray Name="offsets" format="ascii" type="Int32">0</DataArray>
<DataArray Name="types" format="ascii" type="UInt8">1</DataArray>
</Cells>
<PointData>
<DataArray Name="Points" NumberOfComponents="3" format="ascii" type="Float32">52.005746491174193 5.3034488086330329 2 16.214593555832668 6.9031082814412379 2 51.72828315126327 2.5492518063449525 2 63.597964452153356 8.2218765224758634 2 45.614327839799955 3.2793379083434151 2 57.957819119881727 8.2515335247825732 2 58.277577436805963 1.2 2 14.856758655199229 6.332047199713764 2 44.467491133565311 8.7965690428795575 2 53.168470489120125 10.350116208935177 2 53.632093281908425 1.2 2 19.435916416831489 9.8780525211156753 2 47.853133828965106 2.9885154777879896 2 57.702233681448206 9.5675126689854881 2 46.58585176457656 5.527821704489825 2 58.539654261930629 5.5528114527920369 2 59.377902632768922 6.7264384993219695 2 51.392439417340142 3.4548821293625722 2 48.051898495721687 8.7952672879344078 2 54.440654978873155 5.7729119221397838 2 19.178582729726248 4.1364268629473866 2 51.412726824710823 1.2 2 63.043416016222814 10.458590017229252 2 47.179259466439987 1.2 2 56.281562463558387 8.8088504411385511 2 56.259107412830602 1.2 2 45.532737938839198 10.592598843660067 2 52.4398480267431 8.824731545221475 2 55.996106672564693 3.7937698609077279 2 60.482428250132294 1.2 2 44.99394726731375 6.103920609483426 2 49.592548748528891 1.2 2 61.341087850086808 7.7328211953205015 2 17.747233864011015 1.2 2 49.924063462471409 5.0292385894455292 2 57.056207496729662 3.6288190420729998 2 58.474262691176627 2.5388288337506273 2 21.273114394720256 6.0587393433791714 2 51.75961053204751 6.4097934823886131 2 50.85739733813169 8.6114882426265886 2 53.15645014969855 4.7083681706106333 2 60.578703413570942 4.8043705016236649 2 18.970964977444943 5.5247444715266782 2 43.62997661035773 10.318099230750136 2 55.000600623437556 3.5878559363985403 2 16.521663569973487 5.3367803977023405 2 46.612618607844681 3.3589871478924134 2 60.089342087878045 7.7963921304929968 2 56.918023419291295 1.2 2 46.6412075777559 7.7152558212363855 2 56.32354510896203 12.623657326910088 2 53.403599429329404 2.6573097480791055 2 18.699653491432741 8.2370155550928601 2 45.806941425129835 1.8383561919270002 2 60.193264086245449 11.414365387134312 2 48.722292976649413 4.8793035007914121 2 56.304526418496181 5.7862351381499826 2 61.048446176792226 6.1982278404200439 2 49.765915479965336 2.7946182223030549 2 47.729673121446531 7.1702678240619475 2 45.493200776999224 1.2 2 53.122264243465729 5.9240055012553956 2 20.50980857904911 4.244129037650362 2 52.060566476723196 1.2 2 65.239029471353973 10.645585458247041 2 44.790190122126155 2.5326524730092808 2 55.912717341235101 7.5760494143071329 2 54.920617810771716 1.2 2 49.239009332678037 11.923336775437134 2 54.536926678968349 7.7254968840917471 2 18.437619647161394 2.7063974203066556 2 55.95293136346482 2.7731340972939313 2 59.571953095390434 1.2 2 43.651910446580963 6.9713122363643718 2 48.923565260995318 1.2 2 62.179573491797164 6.8987576358785834 2 48.77122863033604 3.56675090557298 2 59.004072462675843 4.6777649732537894 2 49.900389184567992 6.7242303371904413 2 52.074404498315296 12.012452412716804 2 52.124384714288965 4.2876606295324438 2 17.591681522144661 7.1079360828562068 2 42.580593619355646 8.9109940002705645 2 52.969898559666369 1.2 2 46.800820933705609 4.5050556634578367 2 58.223294693367876 7.0237409939986764 2 56.981997219358909 2.2700471800972291 2 22.399165372397615 11.554834329689237 2 46.230933022005431 8.9647955796217538 2 54.595877465977814 11.340505236962162 2 55.134987056929596 2.2653197405092684 2 48.186792597121432 1.2 2 58.736405410123595 10.763379179457539 2 45.674971223411163 4.5321967887430858 2 57.435451612263208 5.645632188363602 2 60.032604494365835 5.717175984529562 2 22.178701929128525 5.1656270677459153 2 50.786543752161762 4.4410285837794508 2 47.674674781504528 10.23187218791006 2 55.315465524985733 6.4997597459799792 2 18.151794229482199 3.8764452165863355 2 50.189842608669615 1.2 2 62.005353759438954 11.808701996142959 2 48.895470567036405 2.4089407453330711 2 55.132573974013468 9.5780336656410352 2 57.604858879184569 1.2 2 46.954010318274065 12.035887862849036 2 52.471039135894401 7.4772533828684544 2 19.508179034910789 2.7601409364597695 2 56.725003440753724 4.7606939825054431 2 45.987194660273602 6.5868857666884413 2 50.787315920976944 1.2 2 62.169222568707241 8.9410904122780472 2 18.430961931976753 1.2 2 50.741045611209991 5.7772407023977097 2 57.631378870379621 2.9351310426786701 2 59.433154676538337 2.6444193461550589 2 20.190456476992111 5.5379380896430241 2 51.034857701666347 7.3954588588893131 2 49.463988227345183 8.6975810347161477 2 53.711571673498653 3.6623507155730914 2 59.179321411529848 3.5532207767951425 2 17.979180533101239 5.9219650398467198 2 42.768916594766431 11.978358193937808 2 54.300603594924787 4.6921676949055708 2 15.405044946138867 5.0149405948349237 2 47.847222322274227 4.1210050281067439 2 59.415879269456397 8.8982997882241026 2 55.605080479043764 1.2 2 44.83885601508856 7.6469306652698892 2 56.631003360768389 10.792323249452734 2 52.647952498554893 1.8260380843016963 2 19.698328454718251 7.1368386011000302 2 44.644128969226216 4.7913958855172769 2 46.816779707630076 2.5134548839276345 2 60.853734055067072 9.7481878634230341 2 17.150423155189312 4.4795098556935722 2 48.824430127522504 5.8622990167075786 2 55.384272902601538 4.8800185742839552 2 50.709960957651994 2.6809185862203351 2 47.674652775813975 5.8060078032121245 2 46.453559046679239 1.2 2 53.617204074300936 6.9165958640370091 2 21.723092356327875 3.9597360134388166 2 52.611279817678387 3.2381424496330147 2 44.404289136401133 3.4990051212957853 2 57.036986982206038 7.0345464090094181 2 54.343216553230214 2.782405945460765 2 23.166069775533181 4.2275518851113745 2 49.599993169060426 10.233162952192254 2 53.91012923064158 8.7719648092118003 2 17.377274648290509 2.604268688846942 2 54.272470584695427 1.2 2 58.911294566070396 1.2 2 47.786800972990903 1.7021109270529893 2 49.890812810540403 3.764350959631801 2 58.071022476419479 4.1424593602588446 2 60.301384721157881 3.7824402784326989 2 48.986652554189597 7.3233999046464646 2 51.230450104596308 10.278127685125799 2 </DataArray>
<DataArray Name="forces" NumberOfComponents="3" format="ascii" type="Float32">0.11879072156931048 0.63898165177514699 0.0 0.0010861166070687545 0.62359886642275142 0.0 -0.13743632483398566 0.59154085222238062 0.0 0.037016436603504455 0.58536354021494219 0.0 -0.086818746399861535 0.51310421805656059 0.0 0.15649516590045975 0.60313906799457973 0.0 0.096051588186791825 -2.4981081980614497 0.0 -0.061720935160875345 0.51856775560773838 0.0 -0.076362274307881062 0.61517561407109234 0.0 -0.10358978926559759 0.63841567512086494 0.0 0.010938839388174415 -2.6540964035110539 0.0 0.056260213761586797 0.64362938934822733 0.0 -0.23682916186904773 0.57671715703520288 0.0 -0.052565405359565998 0.41293455190143635 0.0 -0.13354061070522016 0.72878592001543818 0.0 0.093436091871174659 0.56460261085406438 0.0 0.058773972858325516 0.71080777967105435 0.0 -0.1587433601775684 0.45665426025929506 0.0 -0.10364571322719571 0.5968719362946302 0.0 0.017949440152260521 0.58634215106718046 0.0 0.044374681463199964 0.53714688698072033 0.0 0.0083871266270775201 -2.3717238107768037 0.0 0.076994110268904015 0.58578535007940913 0.0 -0.19420076248723794 -3.2048986577074716 0.0 -0.067901533420928792 0.56514954092890524 0.0 0.076095307224699482 -2.4341484582288655 0.0 -0.10499088134969947 0.68579050953348486 0.0 0.031376041944289446 0.59376234768977976 0.0 0.011037587711473729 0.76495387204748966 0.0 0.10320899413813311 -3.3310663401509855 0.0 -0.060293497763127091 0.38091922662285682 0.0 -0.30398776530890309 -2.2258233356349546 0.0 0.059467767511023742 0.56232282446585824 0.0 -0.038201589900760502 -1.6965468522631002 0.0 -0.1881378239716362 0.58993349661902716 0.0 0.10064889011870681 0.5526811650570842 0.0 0.068049669164927495 0.51230794596806883 0.0 0.00023913998983071671 0.61643098041998012 0.0 -0.013291285209683257 0.72861451715993308 0.0 -0.023493123015690787 0.62929072629594052 0.0 -0.079485781266038599 0.60815665883881387 0.0 0.021990367171136671 0.62943616847218342 0.0 0.013646803178424205 0.57141772973711846 0.0 -0.12260658066834471 0.55666429086893598 0.0 0.020754212787577053 0.43020429692127937 0.0 0.042379303466201224 0.6150020037854107 0.0 -0.073682873688457606 0.68906991652202254 0.0 0.10520659874384111 0.67433972023020561 0.0 0.098564632237992278 -2.6778511372213054 0.0 -0.12846889651711552 0.57299338340320194 0.0 0.10945007905787826 0.68602338566672061 0.0 0.014960341519113296 0.56362044322726623 0.0 -0.029918795980995672 0.61374751204617228 0.0 -0.17789343649558395 0.54730614572802427 0.0 -0.023077263023618788 0.77783425404630613 0.0 -0.12429637138758853 0.4206698378182917 0.0 0.053712810525449461 0.56087080849658322 0.0 0.029028524174040893 0.46981859307526869 0.0 -0.042948814350471098 0.45104133970297977 0.0 -0.064422402327016792 0.60711088345693431 0.0 -0.19920699466360542 -3.0864690712932066 0.0 0.05487117658526186 0.57295582411760937 0.0 0.016454769977497286 0.51920312805885849 0.0 0.0054383429437870612 -3.0255535244767349 0.0 0.020416258371016016 0.7167113000946439 0.0 -0.27166384345013384 0.5696299037721313 0.0 0.048183647325034877 0.6189606090547175 0.0 0.017816329217700932 -2.6523604369653766 0.0 0.038716256506279439 0.7250609560345701 0.0 -0.028386856759075041 0.61217617708582361 0.0 -0.033234833205417758 0.40858009472159051 0.0 0.15107541669321789 0.64434383444134191 0.0 0.14920396309850004 -2.6993539892732321 0.0 -0.11749215307282554 0.54828846417396115 0.0 -0.17780634842240084 -2.5331889602480508 0.0 -0.018291844279079983 0.56344740157191486 0.0 -0.034514045068757548 0.44199671325225576 0.0 0.25327489154148874 0.52738409862758229 0.0 -0.061788058446513361 0.53003486813828449 0.0 -0.019510196590920542 0.77058484913216097 0.0 -0.16371118089332926 0.47267046677325952 0.0 -0.025197891154004337 0.60879691585987517 0.0 -0.12537622639076651 0.57092455623875982 0.0 0.030029912799002023 -3.3261564807741233 0.0 -0.10710504045331326 0.80496557173600636 0.0 0.038361764628736417 0.61141254315747229 0.0 -0.089608562871772574 0.74006724366049559 0.0 0.0050347573179957139 0.59505896799844749 0.0 -0.082832986582894674 0.63720635491060995 0.0 -0.10070270469617632 0.8408330996200124 0.0 0.066342941214394435 0.66395209485974316 0.0 -0.051541008308921166 -3.2800934797418271 0.0 -0.095223458886584927 0.70498564236362116 0.0 -0.10476969285207266 0.51260436834777867 0.0 0.090276308189978227 0.64333390063841733 0.0 0.021639318957662544 0.66033407462115568 0.0 0.024561643264770061 0.59509140683617523 0.0 0.080259216797941235 0.8531624073354066 0.0 -0.050409124005973305 0.69689744959270505 0.0 0.064269584625361809 0.60913856504047592 0.0 0.053887947375906076 0.59621615380699344 0.0 -0.055379512395050734 -2.1540768546944542 0.0 0.12842563677265595 0.70455509760816382 0.0 -0.025503286924129731 0.7770548334540438 0.0 0.049714823769310801 0.81341659862986404 0.0 0.085021280332443716 -2.4711855788666415 0.0 -0.01968910506982921 0.69866195116322527 0.0 0.04238050064258414 0.6649323722225684 0.0 -0.10055035204008 0.60335366534686896 0.0 0.062322516408939488 0.58924648210937758 0.0 -0.21618383638077487 0.73193451338347293 0.0 0.037565823654542189 -2.2275838819571967 0.0 0.025070048021041985 0.57762467348960045 0.0 0.062331452817893207 -1.8527072821952753 0.0 0.056907276806603332 0.55751738441639631 0.0 0.2662110613654643 0.64430381554468585 0.0 0.11811729975165974 0.58605879379531856 0.0 0.053478285076305539 0.51915758030405645 0.0 -0.10970915891797983 0.61503698328334766 0.0 -0.066320003039109107 0.64494672817281196 0.0 -0.08946555220060759 0.63136441167475765 0.0 -0.0095254630641488092 0.50994903957441262 0.0 0.029424158814094492 0.57074534038763991 0.0 -0.083078980724564433 0.64141303516950898 0.0 0.040474103667880672 0.53827842043740048 0.0 -0.014724875355605183 0.65199758654945728 0.0 -0.089129029601369869 0.51345758459280966 0.0 0.16893515645498736 0.76363891162156861 0.0 0.017885550189051358 -2.596565868940016 0.0 -0.20932847561720974 0.59661747910709972 0.0 0.0021828290330951905 0.65291440121735067 0.0 -0.030166448188880368 0.59417737571995333 0.0 -0.0029509255832770864 0.55232255650240303 0.0 -0.14336068977894845 0.55397191080371799 0.0 -0.16195832851312042 0.60854944196414151 0.0 0.091709292952297905 0.76984175311575542 0.0 0.0081574146803477868 0.53089495519213781 0.0 -0.038838810864567086 0.528315597107197 0.0 -0.037755734051605844 0.59764177408926233 0.0 -0.2583888135310286 0.42955393959202237 0.0 -0.061721994249517687 0.57090475859761691 0.0 -0.16438015404038253 -3.0434175881375518 0.0 0.030982803428558733 0.61389216723228468 0.0 0.012728136948557345 0.60739180858314112 0.0 0.0018270700527481809 0.6111822466067045 0.0 -0.052703438798008997 0.63359812275032812 0.0 0.040181802601568339 0.60901003817798616 0.0 0.019969151694084177 0.65597434161372881 0.0 -0.071973349381028284 0.5123106242098765 0.0 -0.079967821343203127 0.64981376084432829 0.0 0.16704438433058411 0.73110605240606885 0.0 0.077406792350736525 0.56023131102010559 0.0 0.028627286361004887 -2.5273882724641297 0.0 0.11230267572090914 -2.4203245809475531 0.0 -0.17987594151227426 0.30337483036281127 0.0 0.097010750718928285 0.63101334499660977 0.0 0.0324534229265111 0.81359924129270278 0.0 0.076967773125777239 0.55473736153646336 0.0 -0.046815858264143251 0.58076273384677424 0.0 -0.049988442175718961 0.66794114372579727 0.0 </DataArray>
<DataArray Name="radii" format="ascii" type="Float32">1.2 1.2 1.2 1.2 1.2 1.2 1.2 1.2 1.2 1.2 1.2 1.2 1.2 1.2 1.2 1.2 1.2 1.2 1.2 1.2 1.2 1.2 1.2 1.2 1.2 1.2 1.2 1.2 1.2 1.2 1.2 1.2 1.2 1.2 1.2 1.2 1.2 1.2 1.2 1.2 1.2 1.2 1.2 1.2 1.2 1.2 1.2 1.2 1.2 1.2 1.2 1.2 1.2 1.2 1.2 1.2 1.2 1.2 1.2 1.2 1.2 1.2 1.2 1.2 1.2 1.2 1.2 1.2 1.2 1.2 1.2 1.2 1.2 1.2 1.2 1.2 1.2 1.2 1.2 1.2 1.2 1.2 1.2 1.2 1.2 1.2 1.2 1.2 1.2 1.2 1.2 1.2 1.2 1.2 1.2 1.2 1.2 1.2 1.2 1.2 1.2 1.2 1.2 1.2 1.2 1.2 1.2 1.2 1.2 1.2 1.2 1.2 1.2 1.2 1.2 1.2 1.2 1.2 1.2 1.2 1.2 1.2 1.2 1.2 1.2 1.2 1.2 1.2 1.2 1.2 1.2 1.2 1.2 1.2 1.2 1.2 1.2 1.2 1.2 1.2 1.2 1.2 1.2 1.2 1.2 1.2 1.2 1.2 1.2 1.2 1.2 1.2 1.2 1.2 1.2 1.2 1.2 1.2 1.2 1.2 </DataArray>
</PointData>
<CellData/>
</Piece>
</UnstructuredGrid>
</VTKFile>
