<?xml version="1.0" ?>
<VTKFile byte_order="LittleEndian" type="UnstructuredGrid" version="0.1">
<UnstructuredGrid>
<Piece NumberOfCells="0" NumberOfPoints="6">
<Points>
<DataArray NumberOfComponents="3" format="ascii" type="Float32">0 0 0 11.153873692869487 1.4098398656761375 2 69.338715710882454 3.0062142494592221 2 91.189680732353835 2.1706478525710522 2 30.054920176636362 1.2 2 36.978460239384987 1 2 </DataArray>
</Points>
<Cells>
<DataArray Name="connectivity" format="ascii" type="Int32">0</DataArray>
<DataArray Name="offsets" format="ascii" type="Int32">0</DataArray>
<DataArray Name="types" format="ascii" type="UInt8">1</DataArray>
</Cells>
<PointData>
<DataArray Name="Points" NumberOfComponents="3" format="ascii" type="Float32">0 0 0 11.153873692869487 1.4098398656761375 2 69.338715710882454 3.0062142494592221 2 91.189680732353835 2.1706478525710522 2 30.054920176636362 1.2 2 36.978460239384987 1 2 </DataArray>
<DataArray Name="forces" NumberOfComponents="3" format="ascii" type="Float32">0 0 0 0.00032531508042415568 -0.0022373883259859473 0.0 0.016004409015012242 0.056008505179130932 0.0 0.0018300798396139045 0.028844582546856921 0.0 -0.012054593877409821 -0.026110527306308851 0.0 -0.030408678794046528 -0.068329668835087093 0.0 </DataArray>
<DataArray Name="radii" format="ascii" type="Float32">0 1.2 1.2 1 1.2 1 </DataArray>
</PointData>
<CellData/>
</Piece>
</UnstructuredGrid>
</VTKFile>
