<?xml version="1.0" ?>
<VTKFile byte_order="LittleEndian" type="UnstructuredGrid" version="0.1">
<UnstructuredGrid>
<Piece NumberOfCells="0" NumberOfPoints="34">
<Points>
<DataArray NumberOfComponents="3" format="ascii" type="Float32">11.449776879905208 1.768461574151017 2 20.533847078815068 1 2 25.615534969706324 1.8982681884761694 2 39.142214233826166 2.103780143333625 2 45.074326265267409 1.5312701074916548 2 53.892874669457775 2.296311466317547 2 59.438776702408546 1 2 69.107196541408683 2.0886501075889465 2 15.090255854113733 2.9639471743869112 2 19.89958727385654 5.492302330775682 2 29.537054104908947 1.2070836424708136 2 42.908661903516702 1.0887650778946512 2 47.601477181846931 3.1488391316943964 2 51.767386569974306 1 2 61.126831389152791 1.7589178836428709 2 64.226628416955435 2.5862877672693729 2 96.321237355602904 2.4681538160631078 2 13.293516203833677 1 2 18.840636407458781 2.0606613353773411 2 23.834294871096599 1 2 46.999535966780435 1 2 55.840465079757848 2.7524805993394486 2 57.544663798114854 1.8892977033670399 2 67.433046034346816 1 2 92.972376843754105 1 2 15.415181423637147 1 2 20.22192988107448 3.5136403288987275 2 27.607503369651472 1.728937966281912 2 41.12988122920661 1.9901623275042217 2 49.157793730118868 4.4055694687944733 2 51.743228591344007 2.9926518543490968 2 63.066995467515 1 2 65.431963807728721 1 2 94.973425432291634 1 2 </DataArray>
</Points>
<Cells>
<DataArray Name="connectivity" format="ascii" type="Int32">0</DataArray>
<DataArray Name="offsets" format="ascii" type="Int32">0</DataArray>
<DataArray Name="types" format="ascii" type="UInt8">1</DataArray>
</Cells>
<PointData>
<DataArray Name="Points" NumberOfComponents="3" format="ascii" type="Float32">11.449776879905208 1.768461574151017 2 20.533847078815068 1 2 25.615534969706324 1.8982681884761694 2 39.142214233826166 2.103780143333625 2 45.074326265267409 1.5312701074916548 2 53.892874669457775 2.296311466317547 2 59.438776702408546 1 2 69.107196541408683 2.0886501075889465 2 15.090255854113733 2.9639471743869112 2 19.89958727385654 5.492302330775682 2 29.537054104908947 1.2070836424708136 2 42.908661903516702 1.0887650778946512 2 47.601477181846931 3.1488391316943964 2 51.767386569974306 1 2 61.126831389152791 1.7589178836428709 2 64.226628416955435 2.5862877672693729 2 96.321237355602904 2.4681538160631078 2 13.293516203833677 1 2 18.840636407458781 2.0606613353773411 2 23.834294871096599 1 2 46.999535966780435 1 2 55.840465079757848 2.7524805993394486 2 57.544663798114854 1.8892977033670399 2 67.433046034346816 1 2 92.972376843754105 1 2 15.415181423637147 1 2 20.22192988107448 3.5136403288987275 2 27.607503369651472 1.728937966281912 2 41.12988122920661 1.9901623275042217 2 49.157793730118868 4.4055694687944733 2 51.743228591344007 2.9926518543490968 2 63.066995467515 1 2 65.431963807728721 1 2 94.973425432291634 1 2 </DataArray>
<DataArray Name="forces" NumberOfComponents="3" format="ascii" type="Float32">-0.0012028396155419547 0.00051003900092157803 0.0 0.0024901140948533416 -0.0015818558715203557 0.0 -0.0098699005411994022 0.013223455370869948 0.0 -0.0063570546296851868 0.03621179258393406 0.0 -0.00027555215706298001 7.7855286063608002e-05 0.0 -0.012030827673341611 -0.0026904361926446321 0.0 0.066137187388191868 -0.036457031036619396 0.0 0.021130602568093324 0.01380980373850902 0.0 -0.00089143580692316966 0.005445167846002184 0.0 0.0 0.0 0.0 0.021674421896834824 -0.0057627246067894281 0.0 0.033058629690009854 -0.016028520366563926 0.0 0.0 0.0 0.0 0.00012515816300348628 -0.010470698341573334 0.0 -0.043543424407241356 0.02075920151947518 0.0 -0.016035338301481353 0.020948302973364055 0.0 0.019972982984413669 0.021638492823464778 0.0 0.0012028396155419547 -0.00051003900092157803 0.0 -0.0024901140948533416 0.0015818558715203557 0.0 -0.021325782336888359 -0.010770265228956409 0.0 0.00027555215706298001 -7.7855286063608002e-05 0.0 -0.0068522054981328944 0.012113321346799157 0.0 -0.050819122363769051 0.025610967932611192 0.0 0.0071682911850239027 -0.01380980373850902 0.0 -0.0096618347653809854 -0.014271520029732657 0.0 0.00089143580692316966 -0.005445167846002184 0.0 0.0 0.0 0.0 0.0095212609812529367 0.0033095344648758898 0.0 0.024981232023573018 0.013650291410560209 0.0 0.0 0.0 0.0 -0.00012515816300348628 0.010470698341573334 0.0 0.047108392554293048 -0.0193360235696215 0.0 -0.012263555451635873 -0.020948302973364055 0.0 0.012524775873330306 -0.021638492823464778 0.0 </DataArray>
<DataArray Name="radii" format="ascii" type="Float32">1 1 1 1 1 1 1 1 1 1 1 1 1 1 1 1 1 1 1 1 1 1 1 1 1 1 1 1 1 1 1 1 1 1 </DataArray>
</PointData>
<CellData/>
</Piece>
</UnstructuredGrid>
</VTKFile>
