<?xml version="1.0" ?>
<VTKFile byte_order="LittleEndian" type="UnstructuredGrid" version="0.1">
<UnstructuredGrid>
<Piece NumberOfCells="0" NumberOfPoints="181">
<Points>
<DataArray NumberOfComponents="3" format="ascii" type="Float32">8.3444917642134531 1.4 2 29.953940617209977 1.4 2 76.921928989555099 2.9362120940705334 2 79.623891265960353 3.1212008199315373 2 88.17648656582692 3.9713058314007208 2 2.7749245270285789 1.4 2 34.605612171021036 2.8163649758994409 2 68.728416337147223 1.4 2 84.819136086445425 1.4 2 87.241154395815371 10.759958898689137 2 5.1739504903662139 8.7250724400095905 2 31.557833444758931 9.5538087038379622 2 75.35730859346873 9.1844209435000117 2 79.29276873310387 6.8900089777247846 2 92.05893453707796 4.7668585480070407 2 4.0464775678749332 6.6116518660908223 2 34.778626362217409 5.065413192786548 2 69.959428187333671 1.4 2 81.066664480546621 7.5789505623984779 2 87.306883308843084 1.4 2 5.081976661551435 2.4379478738204323 2 27.99049905690665 2.397753482697047 2 74.955935300107569 3.3274165472940171 2 77.987591982793958 4.7719939984591893 2 89.113052265935863 9.0796283098390145 2 3.3659310844238894 2.7515535113440137 2 37.979988543158626 3.3919441176047349 2 71.334310827736573 5.0963267899588498 2 85.671789468417018 2.8977144859045927 2 85.103252884274141 9.5453988914678298 2 7.1752763520684821 4.8192599894630632 2 27.500147219957505 8.9265426350359984 2 71.787571649405024 9.9922187913699076 2 75.943446597721675 5.3668256771838321 2 93.775230569066665 1.4 2 95.084483710216034 1.4 2 2.9568522577540306 5.5746458930066227 2 35.882322746134683 8.5043273829677837 2 73.043853363318476 4.0541615628076952 2 80.985784542416894 2.8314092824696786 2 91.416797415306959 2.7653617998190336 2 11.07591522677861 2.80412144319437 2 32.152292639646269 2.8587169876192471 2 78.346393310094157 3.0121205616672864 2 78.780528532559572 1.4 2 90.073795400940639 3.6546381606849114 2 1.4 3.7718056654183751 2 11.075847246759833 7.7959099822346865 2 33.927479249649075 1.4 2 68.445385004014639 6.5650212608569838 2 69.352564223222217 3.296310618452496 2 83.537983229203022 1.4 2 88.630049913966729 6.9571879660364786 2 7.2905826839760675 9.7233268650044398 2 34.158496456320954 6.9516313239431753 2 74.053396189101946 6.7994282533394319 2 77.090870311280611 10.684540908563724 2 91.498848311278252 8.8461916422569793 2 5.665171768381116 5.9949432592183696 2 32.869828599841917 5.2481388393841613 2 73.401188862264334 1.4 2 84.053111408506368 4.0956693864217106 2 89.194023195199392 2.6479909812566698 2 7.3802042207553233 2.6818117384333777 2 26.198802778999134 4.4753294069935183 2 29.861344827856897 7.8013282183728432 2 74.573330383596783 1.4 2 80.584984160486272 5.5581041610089912 2 93.54405555640291 8.260793499173964 2 4.8560611125837108 4.4182906498303023 2 36.543653075054081 1.4 2 69.819635081912068 8.7161113842158731 2 84.973312973803417 7.3285005623849129 2 83.988359724147188 6.0454165166218301 2 8.8605288659699131 7.7248818061879918 2 26.268724910764266 6.9914354516042243 2 73.455132259326447 8.5556480113374036 2 77.289737993006511 8.1751936994860248 2 93.930960186331589 5.3266557647692112 2 94.976315715421975 3.8551737351797275 2 1.4 7.3153771776420413 2 37.109418612525779 4.7687321724209006 2 72.36032796441738 1.4 2 82.605058902477495 2.7090556373935861 2 89.922033463923199 1.4 2 96.138372400891839 5.0578646317533735 2 9.6260215993873182 1.4 2 30.168712007174182 2.6226921912944769 2 76.510813084649882 1.4 2 81.3759615628299 4.1305203805960691 2 88.396656690974325 5.3070614617318226 2 1.4 2.443731625063216 2 32.61600558018646 1.4 2 68.259608581980743 2.556143330465086 2 86.065117457837346 1.4 2 86.95221250635025 8.2373557649956552 2 6.836679299803059 7.2554972490817837 2 11.312728276780351 4.4577897495992431 2 33.819084292959566 9.3575785884329896 2 74.004802473314726 11.155705947047412 2 79.079846284711806 8.9653093680736813 2 92.461293044031478 6.5192659888608073 2 3.1085531613715882 8.3624105167397449 2 33.434701536233433 3.6338806523993652 2 66.215910512481102 1.4 2 70.840956192791552 2.6726736373256679 2 81.264306929077264 9.7203960758267716 2 88.595361393481198 1.4 2 5.6121579732653188 1.4 2 29.593293183574549 3.7937424171200327 2 74.24030000106886 4.9931014160414948 2 79.416103980414633 4.6572405869216293 2 90.586801962067 11.075502876812413 2 4.1013122494537138 1.4 2 36.963429009166923 2.3124427369300489 2 71.84973136735664 3.4356138100833422 2 86.520663365246989 4.0477260840299305 2 83.257015049792514 10.981385681357416 2 98.6 2.2767647284280752 2 8.5382777459976271 3.6672299804888313 2 29.315764909549202 10.350461185263983 2 69.808474903468309 11.343110453005517 2 76.256069410374053 3.9064388854511494 2 92.533007887071435 1.4 2 96.215121869113574 1.8219384320585947 2 1.4 5.339955042089735 2 37.672256180542639 9.9539153882915876 2 72.552067424744507 6.004564056312093 2 81.083733140834582 1.4 2 92.629050261641964 3.4482104355063159 2 9.6458121505212322 2.8497502108381694 2 31.318788372344649 1.4 2 77.631853524461235 1.4 2 79.923153833680857 1.4 2 90.369000188145478 5.094556253183649 2 1.4 1.4 2 12.473743051705608 9.7650819594001259 2 35.212494641474215 1.4 2 68.451117190245185 4.8724440514038472 2 69.993479085389325 4.5531335786806952 2 82.313547469912763 1.4 2 86.66322327526332 6.139155203332284 2 9.8392283363784721 9.9715114153398652 2 12.857866462566486 1.5257831836393241 2 32.169388826064079 7.3074926686934214 2 75.719952364468995 7.0456155071815889 2 79.527279335470979 11.393321096382612 2 90.50224748971668 6.9167604261706925 2 6.0215036247561331 3.5827095930712067 2 31.29627980454265 4.1347438132421139 2 66.592725301803227 2.9956931042940296 2 73.561839634850955 2.8211413319820817 2 84.281506426934456 2.7832946710280639 2 87.337149004090094 2.7691573856912952 2 6.9868257032706786 1.4 2 27.532270399778525 5.0823883855230596 2 30.822105799855194 5.8264013612065293 2 39.730008220281576 4.7969691653145246 2 75.517958837024352 1.4 2 82.406175980741381 6.25150548692101 2 95.623286762631039 8.9294756329390133 2 3.3338758194297835 3.9802355798627822 2 35.808649314878664 3.716916002328051 2 39.033592322933877 2.8425341947075635 2 70.097940475055978 6.5764722462961194 2 85.45280837799379 5.0333063732799275 2 83.10397158480832 8.3577870072873672 2 8.4855527601879821 5.7096282311411937 2 25.235071540701618 1.9156691946223574 2 28.308541654705142 6.6732831990549046 2 71.636358060309476 7.5967528860542934 2 77.678170675801454 6.2171064107712315 2 94.086254590294459 2.9363193815564412 2 96.828622625943467 3.3524743900088891 2 1.4 9.8773332729853323 2 26.645990461247418 1.6956282953231978 2 36.239612400388857 6.3116623333822117 2 71.208058605567459 1.4 2 82.727513650906744 4.44115224947911 2 91.220775864847539 1.4 2 96.578998066774872 6.8663358123607887 2 </DataArray>
</Points>
<Cells>
<DataArray Name="connectivity" format="ascii" type="Int32">0</DataArray>
<DataArray Name="offsets" format="ascii" type="Int32">0</DataArray>
<DataArray Name="types" format="ascii" type="UInt8">1</DataArray>
</Cells>
<PointData>
<DataArray Name="Points" NumberOfComponents="3" format="ascii" type="Float32">8.3444917642134531 1.4 2 29.953940617209977 1.4 2 76.921928989555099 2.9362120940705334 2 79.623891265960353 3.1212008199315373 2 88.17648656582692 3.9713058314007208 2 2.7749245270285789 1.4 2 34.605612171021036 2.8163649758994409 2 68.728416337147223 1.4 2 84.819136086445425 1.4 2 87.241154395815371 10.759958898689137 2 5.1739504903662139 8.7250724400095905 2 31.557833444758931 9.5538087038379622 2 75.35730859346873 9.1844209435000117 2 79.29276873310387 6.8900089777247846 2 92.05893453707796 4.7668585480070407 2 4.0464775678749332 6.6116518660908223 2 34.778626362217409 5.065413192786548 2 69.959428187333671 1.4 2 81.066664480546621 7.5789505623984779 2 87.306883308843084 1.4 2 5.081976661551435 2.4379478738204323 2 27.99049905690665 2.397753482697047 2 74.955935300107569 3.3274165472940171 2 77.987591982793958 4.7719939984591893 2 89.113052265935863 9.0796283098390145 2 3.3659310844238894 2.7515535113440137 2 37.979988543158626 3.3919441176047349 2 71.334310827736573 5.0963267899588498 2 85.671789468417018 2.8977144859045927 2 85.103252884274141 9.5453988914678298 2 7.1752763520684821 4.8192599894630632 2 27.500147219957505 8.9265426350359984 2 71.787571649405024 9.9922187913699076 2 75.943446597721675 5.3668256771838321 2 93.775230569066665 1.4 2 95.084483710216034 1.4 2 2.9568522577540306 5.5746458930066227 2 35.882322746134683 8.5043273829677837 2 73.043853363318476 4.0541615628076952 2 80.985784542416894 2.8314092824696786 2 91.416797415306959 2.7653617998190336 2 11.07591522677861 2.80412144319437 2 32.152292639646269 2.8587169876192471 2 78.346393310094157 3.0121205616672864 2 78.780528532559572 1.4 2 90.073795400940639 3.6546381606849114 2 1.4 3.7718056654183751 2 11.075847246759833 7.7959099822346865 2 33.927479249649075 1.4 2 68.445385004014639 6.5650212608569838 2 69.352564223222217 3.296310618452496 2 83.537983229203022 1.4 2 88.630049913966729 6.9571879660364786 2 7.2905826839760675 9.7233268650044398 2 34.158496456320954 6.9516313239431753 2 74.053396189101946 6.7994282533394319 2 77.090870311280611 10.684540908563724 2 91.498848311278252 8.8461916422569793 2 5.665171768381116 5.9949432592183696 2 32.869828599841917 5.2481388393841613 2 73.401188862264334 1.4 2 84.053111408506368 4.0956693864217106 2 89.194023195199392 2.6479909812566698 2 7.3802042207553233 2.6818117384333777 2 26.198802778999134 4.4753294069935183 2 29.861344827856897 7.8013282183728432 2 74.573330383596783 1.4 2 80.584984160486272 5.5581041610089912 2 93.54405555640291 8.260793499173964 2 4.8560611125837108 4.4182906498303023 2 36.543653075054081 1.4 2 69.819635081912068 8.7161113842158731 2 84.973312973803417 7.3285005623849129 2 83.988359724147188 6.0454165166218301 2 8.8605288659699131 7.7248818061879918 2 26.268724910764266 6.9914354516042243 2 73.455132259326447 8.5556480113374036 2 77.289737993006511 8.1751936994860248 2 93.930960186331589 5.3266557647692112 2 94.976315715421975 3.8551737351797275 2 1.4 7.3153771776420413 2 37.109418612525779 4.7687321724209006 2 72.36032796441738 1.4 2 82.605058902477495 2.7090556373935861 2 89.922033463923199 1.4 2 96.138372400891839 5.0578646317533735 2 9.6260215993873182 1.4 2 30.168712007174182 2.6226921912944769 2 76.510813084649882 1.4 2 81.3759615628299 4.1305203805960691 2 88.396656690974325 5.3070614617318226 2 1.4 2.443731625063216 2 32.61600558018646 1.4 2 68.259608581980743 2.556143330465086 2 86.065117457837346 1.4 2 86.95221250635025 8.2373557649956552 2 6.836679299803059 7.2554972490817837 2 11.312728276780351 4.4577897495992431 2 33.819084292959566 9.3575785884329896 2 74.004802473314726 11.155705947047412 2 79.079846284711806 8.9653093680736813 2 92.461293044031478 6.5192659888608073 2 3.1085531613715882 8.3624105167397449 2 33.434701536233433 3.6338806523993652 2 66.215910512481102 1.4 2 70.840956192791552 2.6726736373256679 2 81.264306929077264 9.7203960758267716 2 88.595361393481198 1.4 2 5.6121579732653188 1.4 2 29.593293183574549 3.7937424171200327 2 74.24030000106886 4.9931014160414948 2 79.416103980414633 4.6572405869216293 2 90.586801962067 11.075502876812413 2 4.1013122494537138 1.4 2 36.963429009166923 2.3124427369300489 2 71.84973136735664 3.4356138100833422 2 86.520663365246989 4.0477260840299305 2 83.257015049792514 10.981385681357416 2 98.6 2.2767647284280752 2 8.5382777459976271 3.6672299804888313 2 29.315764909549202 10.350461185263983 2 69.808474903468309 11.343110453005517 2 76.256069410374053 3.9064388854511494 2 92.533007887071435 1.4 2 96.215121869113574 1.8219384320585947 2 1.4 5.339955042089735 2 37.672256180542639 9.9539153882915876 2 72.552067424744507 6.004564056312093 2 81.083733140834582 1.4 2 92.629050261641964 3.4482104355063159 2 9.6458121505212322 2.8497502108381694 2 31.318788372344649 1.4 2 77.631853524461235 1.4 2 79.923153833680857 1.4 2 90.369000188145478 5.094556253183649 2 1.4 1.4 2 12.473743051705608 9.7650819594001259 2 35.212494641474215 1.4 2 68.451117190245185 4.8724440514038472 2 69.993479085389325 4.5531335786806952 2 82.313547469912763 1.4 2 86.66322327526332 6.139155203332284 2 9.8392283363784721 9.9715114153398652 2 12.857866462566486 1.5257831836393241 2 32.169388826064079 7.3074926686934214 2 75.719952364468995 7.0456155071815889 2 79.527279335470979 11.393321096382612 2 90.50224748971668 6.9167604261706925 2 6.0215036247561331 3.5827095930712067 2 31.29627980454265 4.1347438132421139 2 66.592725301803227 2.9956931042940296 2 73.561839634850955 2.8211413319820817 2 84.281506426934456 2.7832946710280639 2 87.337149004090094 2.7691573856912952 2 6.9868257032706786 1.4 2 27.532270399778525 5.0823883855230596 2 30.822105799855194 5.8264013612065293 2 39.730008220281576 4.7969691653145246 2 75.517958837024352 1.4 2 82.406175980741381 6.25150548692101 2 95.623286762631039 8.9294756329390133 2 3.3338758194297835 3.9802355798627822 2 35.808649314878664 3.716916002328051 2 39.033592322933877 2.8425341947075635 2 70.097940475055978 6.5764722462961194 2 85.45280837799379 5.0333063732799275 2 83.10397158480832 8.3577870072873672 2 8.4855527601879821 5.7096282311411937 2 25.235071540701618 1.9156691946223574 2 28.308541654705142 6.6732831990549046 2 71.636358060309476 7.5967528860542934 2 77.678170675801454 6.2171064107712315 2 94.086254590294459 2.9363193815564412 2 96.828622625943467 3.3524743900088891 2 1.4 9.8773332729853323 2 26.645990461247418 1.6956282953231978 2 36.239612400388857 6.3116623333822117 2 71.208058605567459 1.4 2 82.727513650906744 4.44115224947911 2 91.220775864847539 1.4 2 96.578998066774872 6.8663358123607887 2 </DataArray>
<DataArray Name="forces" NumberOfComponents="3" format="ascii" type="Float32">0.027703293974355336 -2.1136003470175746 0.0 -0.018938740082546701 -2.0455945325379599 0.0 -0.011623589227323372 0.62516940155411693 0.0 -0.028305387556367551 0.6536595873251152 0.0 -0.029400556404279521 0.67686747701812155 0.0 0.027405346378599336 -2.1876689280445287 0.0 0.015183644559989329 0.68003975268842032 0.0 -0.031691142765159108 -2.4536751029619572 0.0 0.08755756715355878 -2.2790816810957075 0.0 0.11378943901505825 0.61945114401861257 0.0 0.027917372101840865 0.69362885329885349 0.0 -0.0048612375682835773 0.61966530669359665 0.0 -0.012150659280428272 0.56196796838004404 0.0 0.038266289774839368 0.64953941773778945 0.0 0.18894816544530393 0.67445299483067389 0.0 0.052065558720476086 0.6901333542420055 0.0 -0.038023679228854745 0.65722951732485024 0.0 -0.063273970822388614 -2.2407840120338292 0.0 0.026893763285745997 0.58623561370214228 0.0 0.10892768496989011 -2.2365050919300584 0.0 0.053944044929563228 0.49447236965040775 0.0 -0.20993167964293269 0.62258438304954355 0.0 0.00524351877845744 0.46496645247621682 0.0 -0.11296249010803849 0.63154470502719717 0.0 0.083576455273588271 0.5686502482998258 0.0 0.048035822807249988 0.69971948552427965 0.0 -0.058765172086350681 0.62580460578442687 0.0 -0.089557806494485845 0.62360527899261409 0.0 0.03232618719669024 0.60421926478512078 0.0 0.072328079447921023 0.6782789868745267 0.0 0.10098598851824891 0.62689969920114574 0.0 -0.009280302389300249 0.535834682264825 0.0 0.02359093694397402 0.67207486105724779 0.0 -0.012477226548026743 0.60047764581144203 0.0 0.0094234236780681713 -1.760773480336898 0.0 -0.033383431491214671 -1.7844877283206899 0.0 0.039192115302543962 0.67295230327454925 0.0 0.057149714658210019 0.55653065645872291 0.0 0.056076646554909737 0.59876210049508083 0.0 -0.027251720259809376 0.66468621175750431 0.0 0.1568197199782333 0.55140318736584015 0.0 0.14720655418322348 0.70156418568917789 0.0 -0.05873876885478746 0.65119843693327972 0.0 -0.053003501248032825 0.7263529315841919 0.0 0.09049828846449981 -2.2321526509506011 0.0 0.16339217514522597 0.62959063328211906 0.0 -1.6780736935153229 0.58070483004869067 0.0 0.033849533340624183 0.61428918219489304 0.0 -0.051604455033763097 -1.9304760924112587 0.0 -0.0036121119725218698 0.62723175932441466 0.0 -0.021185595195339468 0.64303294361808694 0.0 0.069335844590067475 -2.2164239150647558 0.0 0.089376679813822912 0.55690946895342985 0.0 0.071480385841576566 0.66341232171385678 0.0 0.013726736574190879 0.66116688050296768 0.0 -0.066934047875649855 0.54312094511205633 0.0 -0.020291628478649848 0.65540343399990086 0.0 0.082890959697361849 0.60319577802632529 0.0 0.043426006809004741 0.63044130298082302 0.0 0.0091431842462132984 0.60459001904440424 0.0 -0.14627646879127765 -1.9175417775355124 0.0 0.02837009581091543 0.62351889468747135 0.0 0.080703550642093891 0.78203812692756181 0.0 0.045774174822027391 0.70370190659919274 0.0 0.017266755876446931 0.44110540414573085 0.0 -0.027176457661554299 0.62546889830673913 0.0 -0.058363564768895593 -1.6652949104262087 0.0 -0.020413382613436337 0.55694433840724689 0.0 0.14239022872105589 0.65979454855562591 0.0 0.086935541984885845 0.63223310883634487 0.0 -0.054586536588074136 -2.2465471463075386 0.0 0.039309338612115607 0.66437209771793615 0.0 0.025721069052476953 0.65230811115632448 0.0 0.069399471104958865 0.62409628786436055 0.0 0.0091235358640062436 0.63184326732193941 0.0 -0.002910002374628462 0.54854226041695764 0.0 -0.012307334015647431 0.59244338989722189 0.0 -0.0075376154760018743 0.61277460743734169 0.0 0.27582314636131111 0.7198331302449883 0.0 0.20130934035970272 0.53891141171546408 0.0 -1.0492975449182382 0.53162954150634922 0.0 0.020372392730220568 0.5732130235521633 0.0 -0.12797189881498205 -1.980835283150042 0.0 0.036668892150134649 0.58207356628684015 0.0 0.042614684692168892 -2.2397430588558183 0.0 0.16243345313794047 0.58256072140172899 0.0 -0.033488216645449875 -2.0327438105139306 0.0 -0.094386835298409522 0.62553132313313364 0.0 0.11783789627447661 -1.9272672982443133 0.0 0.11119993890261237 0.58727963040749831 0.0 0.080075840983761942 0.60022430132313942 0.0 -1.9216524816127749 0.60258603316596837 0.0 -0.046086445949200971 -1.8442122876657225 0.0 0.028271091047012531 0.65415927118589234 0.0 0.093745921030872315 -2.3373435251257315 0.0 0.069600916578681477 0.61015390454101359 0.0 -0.027084582854601302 0.66270561702917707 0.0 0.046285970564045376 0.56507160259083156 0.0 0.059901506719603155 0.66959357913548678 0.0 0.059524698237636321 0.61689830739045259 0.0 -0.0039496567028791674 0.67104881539629002 0.0 0.1061292379824228 0.62762441870977526 0.0 -0.011444592793776187 0.68043172396732798 0.0 -0.025504521380679324 0.56395091054343749 0.0 0.016742550141232992 -1.9780201942281816 0.0 0.040640915935002908 0.66808493521019263 0.0 0.017851800223303127 0.60489226538697038 0.0 0.1332401217978062 -2.2563276826556269 0.0 0.089428968612312421 -2.478187870265808 0.0 -0.059805430627100226 0.60540188133820116 0.0 -0.049003758135473668 0.5837786903613511 0.0 -0.022517806594709089 0.64540440806610477 0.0 0.041828816525192491 0.62105631146458307 0.0 -0.023494901921203001 -2.2124817401817314 0.0 -0.027202610150436568 0.51831227910614164 0.0 0.027309430341470819 0.6556102387841507 0.0 0.013867339570626358 0.57479475380291212 0.0 0.020245283333881401 0.69434505988000539 0.0 1.8019977767475797 0.65374811970498725 0.0 0.10809530992810552 0.61290026215022797 0.0 -0.049642303985553679 0.63541282324224091 0.0 -0.032728905067734661 0.66902000286185537 0.0 -0.21970997268849909 0.5797876575446721 0.0 0.057253499991247958 -1.9883067715529994 0.0 -0.057128143262161313 0.19769835634503319 0.0 -1.5700487934171596 0.47390647228197663 0.0 -0.0099208290722659909 0.71040656845404859 0.0 -0.096010086328367883 0.58476091303748223 0.0 0.05540372765520063 -2.3510389842252719 0.0 0.10650267559833476 0.74983644853406739 0.0 0.13008422128494446 0.70582092983402533 0.0 -0.015019314578252141 -1.855383252913642 0.0 0.1280134103609174 -2.0621342114467316 0.0 0.072113033818887562 -2.2505398379069219 0.0 0.13447632759492323 0.56697764596860223 0.0 -1.8694255074823216 -2.4182107554937451 0.0 0.063904035648520457 0.63089459525437652 0.0 -0.0879511160657728 -1.9369327337949549 0.0 -0.054985983854775045 0.63738666811758748 0.0 -0.049173028854021507 0.615431942045363 0.0 0.044573227495107004 -2.2728964581190874 0.0 0.035428004867909868 0.64045270951850219 0.0 0.074399555533175565 0.61439165442048005 0.0 -0.22849221056956459 -0.03707396041011024 0.0 0.016773356433390951 0.64046775944979339 0.0 -0.03911485173149909 0.56930746682001221 0.0 0.033441495637042629 0.67058991228471321 0.0 0.082127758350873964 0.56485231027455296 0.0 0.02530926257930631 0.63648246916101525 0.0 -0.041613546879622765 0.6247774363749885 0.0 0.048914439701668255 0.57491041024937573 0.0 0.060935771866233251 0.56371469320096135 0.0 0.013712793114853683 0.62546331688485657 0.0 0.12419456655749384 0.55990064842440446 0.0 0.088380702560429264 -2.1240646702120802 0.0 -0.10904595473326611 0.5872834174332815 0.0 0.0076910886452030702 0.63139313803725094 0.0 -0.081859859805321844 0.58997733315120648 0.0 0.040493211632407822 -1.6788157400001351 0.0 0.025815632151434537 0.67160815799865403 0.0 0.20023764331638813 0.73539641751929341 0.0 0.072689013617684942 0.66174199657186883 0.0 -0.0026598543633761795 0.63739140696584928 0.0 -0.072036542410412144 0.52601427734975714 0.0 -0.058137230779716886 0.65715641964582028 0.0 0.077074253805129861 0.61022462091746066 0.0 0.054334225565160321 0.68049093340268152 0.0 -0.017837245156018349 0.66215056351712098 0.0 -0.00093168598146542436 0.56085532086029311 0.0 -0.0015898559929545253 0.51599684280048363 0.0 -0.0098981576936250093 0.62467528974354536 0.0 0.0097651783715382301 0.60338703924140025 0.0 0.10567299652631078 0.6812616135623315 0.0 0.12375476574107537 0.49376538636388817 0.0 -0.38286430694646023 0.58138437525207032 0.0 -0.10179959913157677 0.10672613965073569 0.0 0.026099291792181928 0.54211929886362542 0.0 -0.11692210652546683 -2.1868752090188401 0.0 0.050766828300603646 0.68926011262588593 0.0 0.044429072813907566 -2.1283898209644962 0.0 0.037585999088752764 0.63820915199548456 0.0 </DataArray>
<DataArray Name="radii" format="ascii" type="Float32">1.4 1.4 1.4 1.4 1.4 1.4 1.4 1.4 1.4 1.4 1.4 1.4 1.4 1.4 1.4 1.4 1.4 1.4 1.4 1.4 1.4 1.4 1.4 1.4 1.4 1.4 1.4 1.4 1.4 1.4 1.4 1.4 1.4 1.4 1.4 1.4 1.4 1.4 1.4 1.4 1.4 1.4 1.4 1.4 1.4 1.4 1.4 1.4 1.4 1.4 1.4 1.4 1.4 1.4 1.4 1.4 1.4 1.4 1.4 1.4 1.4 1.4 1.4 1.4 1.4 1.4 1.4 1.4 1.4 1.4 1.4 1.4 1.4 1.4 1.4 1.4 1.4 1.4 1.4 1.4 1.4 1.4 1.4 1.4 1.4 1.4 1.4 1.4 1.4 1.4 1.4 1.4 1.4 1.4 1.4 1.4 1.4 1.4 1.4 1.4 1.4 1.4 1.4 1.4 1.4 1.4 1.4 1.4 1.4 1.4 1.4 1.4 1.4 1.4 1.4 1.4 1.4 1.4 1.4 1.4 1.4 1.4 1.4 1.4 1.4 1.4 1.4 1.4 1.4 1.4 1.4 1.4 1.4 1.4 1.4 1.4 1.4 1.4 1.4 1.4 1.4 1.4 1.4 1.4 1.4 1.4 1.4 1.4 1.4 1.4 1.4 1.4 1.4 1.4 1.4 1.4 1.4 1.4 1.4 1.4 1.4 1.4 1.4 1.4 1.4 1.4 1.4 1.4 1.4 1.4 1.4 1.4 1.4 1.4 1.4 1.4 1.4 1.4 1.4 1.4 1.4 </DataArray>
</PointData>
<CellData/>
</Piece>
</UnstructuredGrid>
</VTKFile>
