<?xml version="1.0" ?>
<VTKFile byte_order="LittleEndian" type="UnstructuredGrid" version="0.1">
<UnstructuredGrid>
<Piece NumberOfCells="0" NumberOfPoints="108">
<Points>
<DataArray NumberOfComponents="3" format="ascii" type="Float32">43.347255146919181 1.5999999999999999 2 51.967568684309889 4.9248975547320466 2 61.514414969367138 4.1625118623412076 2 16.570871516517741 6.6049552735657926 2 42.162008116596098 2.5956045586042311 2 42.837188453281541 8.1084017016102301 2 51.984810286891687 2.4719666145920911 2 63.497918423106412 8.4192285962273417 2 14.960654519252335 4.0576522644625541 2 45.952717922609331 4.3219362099601124 2 57.684379599272972 7.811639645006391 2 58.126662093717272 1.5999999999999999 2 14.491720442314559 6.1653943329466374 2 22.818246189165666 10.225359184183922 2 44.962669530053205 8.6840741715152738 2 54.02831651868069 10.36043560518533 2 21.38329016073606 1.5999999999999999 2 53.696886481367351 1.5999999999999999 2 61.552917311379701 1.5999999999999999 2 19.714949092333143 10.344918052892144 2 43.794151647504705 2.6749203753443327 2 48.260240259059579 2.4015776429836353 2 58.096443827435564 10.200066751892802 2 65.177550818172591 7.3204107349882239 2 47.051308016011454 5.3235243128588179 2 58.008584920362352 5.5067502802703743 2 59.160461365032134 6.3848063868774201 2 22.611866787645308 3.7978752654129755 2 51.241532936507532 3.8470684307027336 2 48.466541556116788 8.9195859809532951 2 44.661499262318564 1.5999999999999999 2 54.529590303515903 5.4954243657161426 2 18.649996848501011 4.3567748420488517 2 40.834612893628325 9.9092855482186284 2 51.225518989690869 1.5999999999999999 2 62.571378584528397 10.911231083551463 2 47.621478810758994 1.5999999999999999 2 56.039197796032866 9.223564279605279 2 56.161719768764527 1.5999999999999999 2 46.446885715054343 10.773321454914342 2 52.520353177736936 8.4686405117223238 2 61.412180346648036 2.5807084169398089 2 20.238172483509477 3.3141321365499432 2 55.933163387397734 4.0044263211955844 2 60.330472207846405 1.5999999999999999 2 17.147305506153131 9.0936472274659579 2 45.518146064509828 6.2819852911229708 2 50.126395674893537 1.5999999999999999 2 61.498659184027055 8.3348984676754991 2 17.728291422010944 1.5999999999999999 2 50.270921287363144 4.7607793277955732 2 57.150692817331837 3.8713340703139383 2 58.144736551836907 2.7092549047481476 2 20.905867260867034 6.0203711227738292 2 51.580236534190448 6.6274357359354106 2 50.553991405405114 8.8171113400190269 2 53.252280990226865 4.2420671397055889 2 60.124847705288083 4.4668711845205777 2 18.845109279715793 5.8121092514814992 2 43.5172065261971 10.778677183234274 2 54.576405052946058 3.8826823757879314 2 63.733529559388543 6.1040597958816551 2 16.485078289726907 4.8789109387844061 2 47.284544966516862 3.7146644090315579 2 59.653979482243258 8.1527424249987348 2 57.112513893423426 1.5999999999999999 2 46.797209146644619 7.9264866407230077 2 56.144770784440865 12.014847352132922 2 20.384774171364732 1.5999999999999999 2 53.546744716319957 2.6543485609525632 2 62.630241937754597 1.5999999999999999 2 18.842209753577126 7.5935439258196142 2 44.287872644183572 4.3209492024335958 2 46.667347516361517 1.5999999999999999 2 60.223623003561215 10.739945700724219 2 17.127951020456234 3.5969216694395985 2 48.884434301664101 5.2714446029001785 2 56.287237625501263 5.5855218951866012 2 60.804030363983522 5.955793789222688 2 16.551224253524598 1.5999999999999999 2 50.14275469593305 2.6822592696509227 2 48.11619017535471 6.6747077091121687 2 45.718993976120942 1.5999999999999999 2 53.235750010285471 6.3330489996168433 2 62.750834197902108 4.2732563323203596 2 20.989947259438935 4.2717335528674054 2 42.828815454577196 4.5578785645999407 2 52.54942503792541 1.5999999999999999 2 64.954412688330223 10.286792013890748 2 45.423712460432043 3.1194024448659259 2 56.068665497011082 6.9793740369381307 2 54.826692264353376 1.5999999999999999 2 22.855943042482185 5.5452653138979384 2 49.169730748409968 11.27311058999366 2 54.395258506148267 7.8369223993513701 2 18.50451506636843 2.5510626454115033 2 55.509544903140565 2.245996548116076 2 59.241869492087986 1.5999999999999999 2 44.116984700322092 6.3531710889632196 2 49.032966832207684 1.5999999999999999 2 62.221784967332958 6.4255939882917597 2 19.205251791962915 1.5999999999999999 2 48.89644147211073 3.8556047749752573 2 58.692727972635538 4.1302270686179314 2 59.900086016118451 2.9933080637913023 2 21.097917504517209 8.0682943962543572 2 49.929525291786561 6.8545736060631937 2 51.79760566405502 11.165049932465077 2 </DataArray>
</Points>
<Cells>
<DataArray Name="connectivity" format="ascii" type="Int32">0</DataArray>
<DataArray Name="offsets" format="ascii" type="Int32">0</DataArray>
<DataArray Name="types" format="ascii" type="UInt8">1</DataArray>
</Cells>
<PointData>
<DataArray Name="Points" NumberOfComponents="3" format="ascii" type="Float32">43.347255146919181 1.5999999999999999 2 51.967568684309889 4.9248975547320466 2 61.514414969367138 4.1625118623412076 2 16.570871516517741 6.6049552735657926 2 42.162008116596098 2.5956045586042311 2 42.837188453281541 8.1084017016102301 2 51.984810286891687 2.4719666145920911 2 63.497918423106412 8.4192285962273417 2 14.960654519252335 4.0576522644625541 2 45.952717922609331 4.3219362099601124 2 57.684379599272972 7.811639645006391 2 58.126662093717272 1.5999999999999999 2 14.491720442314559 6.1653943329466374 2 22.818246189165666 10.225359184183922 2 44.962669530053205 8.6840741715152738 2 54.02831651868069 10.36043560518533 2 21.38329016073606 1.5999999999999999 2 53.696886481367351 1.5999999999999999 2 61.552917311379701 1.5999999999999999 2 19.714949092333143 10.344918052892144 2 43.794151647504705 2.6749203753443327 2 48.260240259059579 2.4015776429836353 2 58.096443827435564 10.200066751892802 2 65.177550818172591 7.3204107349882239 2 47.051308016011454 5.3235243128588179 2 58.008584920362352 5.5067502802703743 2 59.160461365032134 6.3848063868774201 2 22.611866787645308 3.7978752654129755 2 51.241532936507532 3.8470684307027336 2 48.466541556116788 8.9195859809532951 2 44.661499262318564 1.5999999999999999 2 54.529590303515903 5.4954243657161426 2 18.649996848501011 4.3567748420488517 2 40.834612893628325 9.9092855482186284 2 51.225518989690869 1.5999999999999999 2 62.571378584528397 10.911231083551463 2 47.621478810758994 1.5999999999999999 2 56.039197796032866 9.223564279605279 2 56.161719768764527 1.5999999999999999 2 46.446885715054343 10.773321454914342 2 52.520353177736936 8.4686405117223238 2 61.412180346648036 2.5807084169398089 2 20.238172483509477 3.3141321365499432 2 55.933163387397734 4.0044263211955844 2 60.330472207846405 1.5999999999999999 2 17.147305506153131 9.0936472274659579 2 45.518146064509828 6.2819852911229708 2 50.126395674893537 1.5999999999999999 2 61.498659184027055 8.3348984676754991 2 17.728291422010944 1.5999999999999999 2 50.270921287363144 4.7607793277955732 2 57.150692817331837 3.8713340703139383 2 58.144736551836907 2.7092549047481476 2 20.905867260867034 6.0203711227738292 2 51.580236534190448 6.6274357359354106 2 50.553991405405114 8.8171113400190269 2 53.252280990226865 4.2420671397055889 2 60.124847705288083 4.4668711845205777 2 18.845109279715793 5.8121092514814992 2 43.5172065261971 10.778677183234274 2 54.576405052946058 3.8826823757879314 2 63.733529559388543 6.1040597958816551 2 16.485078289726907 4.8789109387844061 2 47.284544966516862 3.7146644090315579 2 59.653979482243258 8.1527424249987348 2 57.112513893423426 1.5999999999999999 2 46.797209146644619 7.9264866407230077 2 56.144770784440865 12.014847352132922 2 20.384774171364732 1.5999999999999999 2 53.546744716319957 2.6543485609525632 2 62.630241937754597 1.5999999999999999 2 18.842209753577126 7.5935439258196142 2 44.287872644183572 4.3209492024335958 2 46.667347516361517 1.5999999999999999 2 60.223623003561215 10.739945700724219 2 17.127951020456234 3.5969216694395985 2 48.884434301664101 5.2714446029001785 2 56.287237625501263 5.5855218951866012 2 60.804030363983522 5.955793789222688 2 16.551224253524598 1.5999999999999999 2 50.14275469593305 2.6822592696509227 2 48.11619017535471 6.6747077091121687 2 45.718993976120942 1.5999999999999999 2 53.235750010285471 6.3330489996168433 2 62.750834197902108 4.2732563323203596 2 20.989947259438935 4.2717335528674054 2 42.828815454577196 4.5578785645999407 2 52.54942503792541 1.5999999999999999 2 64.954412688330223 10.286792013890748 2 45.423712460432043 3.1194024448659259 2 56.068665497011082 6.9793740369381307 2 54.826692264353376 1.5999999999999999 2 22.855943042482185 5.5452653138979384 2 49.169730748409968 11.27311058999366 2 54.395258506148267 7.8369223993513701 2 18.50451506636843 2.5510626454115033 2 55.509544903140565 2.245996548116076 2 59.241869492087986 1.5999999999999999 2 44.116984700322092 6.3531710889632196 2 49.032966832207684 1.5999999999999999 2 62.221784967332958 6.4255939882917597 2 19.205251791962915 1.5999999999999999 2 48.89644147211073 3.8556047749752573 2 58.692727972635538 4.1302270686179314 2 59.900086016118451 2.9933080637913023 2 21.097917504517209 8.0682943962543572 2 49.929525291786561 6.8545736060631937 2 51.79760566405502 11.165049932465077 2 </DataArray>
<DataArray Name="forces" NumberOfComponents="3" format="ascii" type="Float32">-0.19864784468251873 -3.8253562773111938 0.0 -0.14066780446735494 1.2285292922209534 0.0 0.095334899387138461 1.3166635217154052 0.0 -0.03974863467306014 1.02731190684985 0.0 -0.3794526553053223 1.2383606570141561 0.0 -0.11205200180043434 1.1642551884118078 0.0 -0.13985610182769448 0.79955729222600258 0.0 0.14043761450639675 1.1010895051761782 0.0 -0.045469432933370579 1.1209055821169533 0.0 0.0091249569558161381 1.2017217085043401 0.0 0.054954231074846094 1.1345683121201591 0.0 0.20137604705425594 -4.0544121628540388 0.0 -0.074309942014672226 1.130679999895654 0.0 -0.098757526738147139 0.94328945614443294 0.0 -0.077594819304730028 1.0565391427454405 0.0 -0.0063267024619840795 1.0928174313235453 0.0 -0.013840097818478503 -2.4751070657804042 0.0 0.03092460396287966 -4.3559252727576743 0.0 -0.086455738918487679 -4.1098981966384356 0.0 0.034369307904980384 0.90950623718132206 0.0 -0.18164352849739229 1.1815412621189751 0.0 -0.20289209533178132 1.0289138892698793 0.0 0.0036207355634233496 1.0483077145003261 0.0 0.076392345880888363 1.0500793529912604 0.0 -0.075278712393829439 1.260214955024576 0.0 0.0040435592353749057 1.2863240135793226 0.0 0.11203763737578304 1.0964267268137833 0.0 0.15247636420848537 1.200664352603688 0.0 0.16934224770572848 1.300443937307038 0.0 -0.14593997090150279 1.1393154942664991 0.0 -0.1856849588250753 -3.5619349354807199 0.0 -0.025428011553901876 1.1959033552903091 0.0 0.015573510357695219 1.1714429891914004 0.0 -0.18966396454293263 1.1282144477902816 0.0 -0.1260624025124375 -3.9806763624135431 0.0 0.10050470863673344 1.1336714504262746 0.0 -0.16346021248762688 -3.7497296270757534 0.0 -0.066743076067577456 1.0645469397896994 0.0 0.17352427646724067 -4.0065987140013029 0.0 -0.16503799843066658 1.0803639268737353 0.0 -0.014592312033548133 1.1599915655038449 0.0 0.098465291682322986 1.2543861018526121 0.0 -0.052350648903525143 1.2470024564443385 0.0 -0.039713237038120464 1.0008018793079216 0.0 0.012713915470529469 -4.0015755086686449 0.0 0.023860111068473522 0.98936348895239079 0.0 -0.30735094539223851 0.96926041647183669 0.0 -0.073965045039915356 -4.2716613919010964 0.0 0.090631238770135292 1.1842735065626762 0.0 0.024659686678822679 -3.2536524480488374 0.0 -0.26542047371985744 0.90804184803127863 0.0 0.05228811724961957 1.4048393568946782 0.0 -0.069927433943067774 1.2130712863557713 0.0 0.049854971117896357 1.0361829151117221 0.0 -0.069308139286420323 1.182090249197653 0.0 -0.12757987088717207 1.1378184454850173 0.0 -0.12917581468063671 1.1494377897526475 0.0 0.074329736496923315 1.2166812935613154 0.0 0.097227776703921645 1.098140516316767 0.0 -0.17333296545454324 1.0872331056767515 0.0 -0.025881776350548114 1.2624060246396298 0.0 -0.025279708248438039 1.0637937148016654 0.0 -0.047444990914700863 1.0801631727441148 0.0 -0.082619152015230179 1.1748321699722541 0.0 0.096569882370001844 1.1139392995781119 0.0 0.14348431450963242 -3.4012249873001275 0.0 -0.20934128136709662 1.0239561203491914 0.0 0.027915178645114978 1.0889072130794382 0.0 0.011689895704317887 -2.494834030181222 0.0 -0.017104031816675969 1.370206024515972 0.0 -0.01673895095709399 -2.9481812504329596 0.0 -0.089257649197017952 0.96874845734553949 0.0 -0.11701891455799382 1.1505460750656302 0.0 -0.19141649981438785 -2.9833404503634222 0.0 0.025851590104634434 1.1448931010004875 0.0 -0.079209848716982417 1.2596377526092302 0.0 -0.14309543214618758 1.2653944988123238 0.0 -0.053803375597118008 1.0607421013997183 0.0 0.10972993326473093 1.1685300751874794 0.0 0.096820913192461222 -2.8106794943970739 0.0 -0.10317334744384543 1.3114327498812863 0.0 -0.077901139180792445 1.2430422950361224 0.0 -0.22806636562766475 -3.2929939293314257 0.0 -0.064434321635705061 1.0886057274280538 0.0 0.13695616231510677 1.1100287592745168 0.0 0.11849514928570298 1.1174007947943634 0.0 -0.036840802842779685 1.1420769658468837 0.0 0.076899990504635307 -4.4251377107828933 0.0 0.10902167160997872 1.0683782758367881 0.0 -0.11438788144770531 1.3138836970147536 0.0 0.082529098836295445 1.0738648263016297 0.0 -0.079033027959849678 -4.1140290592773017 0.0 0.04310823004844111 1.1011917169522891 0.0 -0.11916355930133837 1.1463712374486696 0.0 -0.021659116762927422 1.024693596209715 0.0 -0.079027612783383994 1.1618106148443266 0.0 0.025905466789278631 0.77010993087585378 0.0 0.12053078348453106 -3.8816376018165046 0.0 -0.22189255889922932 1.1307696442819868 0.0 -0.027734624784578103 -4.0208158119105848 0.0 0.082410947455933414 1.217368731237668 0.0 0.064929303642434988 -3.2531538942319358 0.0 -0.091459083137017561 1.1925305561303112 0.0 0.0075347503904461544 1.2390225428780275 0.0 0.049894273952776347 1.4554132232716537 0.0 -0.042482106516266382 0.88680407358740421 0.0 0.033793807742200831 1.0837063469341299 0.0 -0.061317110065102098 1.1334615165567909 0.0 </DataArray>
<DataArray Name="radii" format="ascii" type="Float32">1.5999999999999999 1.5999999999999999 1.5999999999999999 1.5999999999999999 1.5999999999999999 1.5999999999999999 1.5999999999999999 1.5999999999999999 1.5999999999999999 1.5999999999999999 1.5999999999999999 1.5999999999999999 1.5999999999999999 1.5999999999999999 1.5999999999999999 1.5999999999999999 1.5999999999999999 1.5999999999999999 1.5999999999999999 1.5999999999999999 1.5999999999999999 1.5999999999999999 1.5999999999999999 1.5999999999999999 1.5999999999999999 1.5999999999999999 1.5999999999999999 1.5999999999999999 1.5999999999999999 1.5999999999999999 1.5999999999999999 1.5999999999999999 1.5999999999999999 1.5999999999999999 1.5999999999999999 1.5999999999999999 1.5999999999999999 1.5999999999999999 1.5999999999999999 1.5999999999999999 1.5999999999999999 1.5999999999999999 1.5999999999999999 1.5999999999999999 1.5999999999999999 1.5999999999999999 1.5999999999999999 1.5999999999999999 1.5999999999999999 1.5999999999999999 1.5999999999999999 1.5999999999999999 1.5999999999999999 1.5999999999999999 1.5999999999999999 1.5999999999999999 1.5999999999999999 1.5999999999999999 1.5999999999999999 1.5999999999999999 1.5999999999999999 1.5999999999999999 1.5999999999999999 1.5999999999999999 1.5999999999999999 1.5999999999999999 1.5999999999999999 1.5999999999999999 1.5999999999999999 1.5999999999999999 1.5999999999999999 1.5999999999999999 1.5999999999999999 1.5999999999999999 1.5999999999999999 1.5999999999999999 1.5999999999999999 1.5999999999999999 1.5999999999999999 1.5999999999999999 1.5999999999999999 1.5999999999999999 1.5999999999999999 1.5999999999999999 1.5999999999999999 1.5999999999999999 1.5999999999999999 1.5999999999999999 1.5999999999999999 1.5999999999999999 1.5999999999999999 1.5999999999999999 1.5999999999999999 1.5999999999999999 1.5999999999999999 1.5999999999999999 1.5999999999999999 1.5999999999999999 1.5999999999999999 1.5999999999999999 1.5999999999999999 1.5999999999999999 1.5999999999999999 1.5999999999999999 1.5999999999999999 1.5999999999999999 1.5999999999999999 1.5999999999999999 </DataArray>
</PointData>
<CellData/>
</Piece>
</UnstructuredGrid>
</VTKFile>
