<?xml version="1.0" ?>
<VTKFile byte_order="LittleEndian" type="UnstructuredGrid" version="0.1">
<UnstructuredGrid>
<Piece NumberOfCells="0" NumberOfPoints="12">
<Points>
<DataArray NumberOfComponents="3" format="ascii" type="Float32">0 0 0 10.20712136607543 1.2 2 38.694410552064902 3.6576820339701044 2 68.630798016114312 3.6824667560617286 2 91.896984950994948 3.1514698808762796 2 29.55525776181749 1.2 2 37.209816756831096 1 2 67.443549853827122 1.4 2 93.995867769384816 3.0596951241386776 2 28.187723958690828 3.0936706169761914 2 95.148130343545461 1.2 2 11.347725564109044 3.2418123144170838 2 </DataArray>
</Points>
<Cells>
<DataArray Name="connectivity" format="ascii" type="Int32">0</DataArray>
<DataArray Name="offsets" format="ascii" type="Int32">0</DataArray>
<DataArray Name="types" format="ascii" type="UInt8">1</DataArray>
</Cells>
<PointData>
<DataArray Name="Points" NumberOfComponents="3" format="ascii" type="Float32">0 0 0 10.20712136607543 1.2 2 38.694410552064902 3.6576820339701044 2 68.630798016114312 3.6824667560617286 2 91.896984950994948 3.1514698808762796 2 29.55525776181749 1.2 2 37.209816756831096 1 2 67.443549853827122 1.4 2 93.995867769384816 3.0596951241386776 2 28.187723958690828 3.0936706169761914 2 95.148130343545461 1.2 2 11.347725564109044 3.2418123144170838 2 </DataArray>
<DataArray Name="forces" NumberOfComponents="3" format="ascii" type="Float32">0 0 0 0.075796821332711234 -0.049993424880879968 0.0 0.0084730386128086289 0.081238587258711498 0.0 0.0027659067176271854 0.024567489580392645 0.0 -0.0096848525062982523 0.019774145783118181 0.0 0.0048958021852962344 -0.051068972110413405 0.0 -0.030374096679701076 -0.024627540870177062 0.0 -0.04635206729887327 -0.080590705449940389 0.0 0.0046028877332131776 0.025409383111927926 0.0 0.022749279566325081 0.020220312108587442 0.0 0.0047859784061529409 -0.10056982089191024 0.0 -0.010759771354374826 0.0063118500602316599 0.0 </DataArray>
<DataArray Name="radii" format="ascii" type="Float32">0 1.2 1.4 1.2 1 1.2 1 1.4 1 1 1.2 1.2 </DataArray>
</PointData>
<CellData/>
</Piece>
</UnstructuredGrid>
</VTKFile>
