<?xml version="1.0" ?>
<VTKFile byte_order="LittleEndian" type="UnstructuredGrid" version="0.1">
<UnstructuredGrid>
<Piece NumberOfCells="0" NumberOfPoints="59">
<Points>
<DataArray NumberOfComponents="3" format="ascii" type="Float32">0 0 0 10.988667331870156 1.2 2 24.513747977852329 1 2 25.201349448696078 9.1180402645542742 2 37.894563901218831 7.3120113267854858 2 67.574391967605905 3.9198228142189659 2 94.335516620419838 6.6231690278369371 2 10.126482871906427 6.3118386664583372 2 28.687991627860093 1.2 2 68.296807365624915 10.035540805841917 2 98.6 6.8465471058363407 2 12.009752953597891 3.0089815311882413 2 23.690023837500984 4.7127048982810757 2 37.639234726548828 1 2 67.454724294752722 1.4 2 97.212629111962158 8.914720335981956 2 29.369169911033588 5.5382048605683929 2 38.85783036155884 1.4 2 64.31942726423965 2.3375360440281163 2 65.065824728480521 1 2 96.77163295707183 1.2 2 26.784133747433948 3.5747728069807025 2 41.466303344865061 2.5138566142268299 2 12.772732156402421 4.3707764207661937 2 38.450952513270749 5.348996763964486 2 99.0 4.552063441591625 2 9.7608096838586835 4.5233439303766865 2 25.071813145723763 3.7546943810726958 2 28.175189183463239 3.9840265455706074 2 39.862077415470424 6.6999641319363983 2 67.00841604860392 5.478093049936744 2 97.835144404310597 3.2441369787084344 2 23.295451802551739 1.2 2 97.514379142725119 5.1199579165723899 2 12.186418504478464 1 2 14.977533895749245 3.2082479728302054 2 25.163921431339833 5.9155010317229211 2 13.289895552967142 7.6141608518814365 2 24.165183826150592 6.9917098413099064 2 65.494632551203608 2.5695892134779084 2 40.22112339383682 2.6298955229031526 2 12.008002481093518 6.2811602891164791 2 40.173444326239178 1 2 99.0 1 2 25.882277863414892 1 2 14.475956104255177 1.7087337028579972 2 27.243989249439583 1 2 41.380992952112052 5.7800831988411012 2 64.530873652205401 3.8458243215401495 2 68.065065361310573 8.3155308238633285 2 23.714808011502644 2.6618972154582159 2 63.825143487236097 1.2 2 66.634201341155048 7.2509075197153328 2 39.624788203009118 8.8571327129967212 2 65.694212147073728 4.497974417686935 2 13.800265010712064 3.5164311199443294 2 97.848773996662217 1 2 13.578281679756847 1 2 41.126474545105204 3.9894961111343843 2 </DataArray>
</Points>
<Cells>
<DataArray Name="connectivity" format="ascii" type="Int32">0</DataArray>
<DataArray Name="offsets" format="ascii" type="Int32">0</DataArray>
<DataArray Name="types" format="ascii" type="UInt8">1</DataArray>
</Cells>
<PointData>
<DataArray Name="Points" NumberOfComponents="3" format="ascii" type="Float32">0 0 0 10.988667331870156 1.2 2 24.513747977852329 1 2 25.201349448696078 9.1180402645542742 2 37.894563901218831 7.3120113267854858 2 67.574391967605905 3.9198228142189659 2 94.335516620419838 6.6231690278369371 2 10.126482871906427 6.3118386664583372 2 28.687991627860093 1.2 2 68.296807365624915 10.035540805841917 2 98.6 6.8465471058363407 2 12.009752953597891 3.0089815311882413 2 23.690023837500984 4.7127048982810757 2 37.639234726548828 1 2 67.454724294752722 1.4 2 97.212629111962158 8.914720335981956 2 29.369169911033588 5.5382048605683929 2 38.85783036155884 1.4 2 64.31942726423965 2.3375360440281163 2 65.065824728480521 1 2 96.77163295707183 1.2 2 26.784133747433948 3.5747728069807025 2 41.466303344865061 2.5138566142268299 2 12.772732156402421 4.3707764207661937 2 38.450952513270749 5.348996763964486 2 99.0 4.552063441591625 2 9.7608096838586835 4.5233439303766865 2 25.071813145723763 3.7546943810726958 2 28.175189183463239 3.9840265455706074 2 39.862077415470424 6.6999641319363983 2 67.00841604860392 5.478093049936744 2 97.835144404310597 3.2441369787084344 2 23.295451802551739 1.2 2 97.514379142725119 5.1199579165723899 2 12.186418504478464 1 2 14.977533895749245 3.2082479728302054 2 25.163921431339833 5.9155010317229211 2 13.289895552967142 7.6141608518814365 2 24.165183826150592 6.9917098413099064 2 65.494632551203608 2.5695892134779084 2 40.22112339383682 2.6298955229031526 2 12.008002481093518 6.2811602891164791 2 40.173444326239178 1 2 99.0 1 2 25.882277863414892 1 2 14.475956104255177 1.7087337028579972 2 27.243989249439583 1 2 41.380992952112052 5.7800831988411012 2 64.530873652205401 3.8458243215401495 2 68.065065361310573 8.3155308238633285 2 23.714808011502644 2.6618972154582159 2 63.825143487236097 1.2 2 66.634201341155048 7.2509075197153328 2 39.624788203009118 8.8571327129967212 2 65.694212147073728 4.497974417686935 2 13.800265010712064 3.5164311199443294 2 97.848773996662217 1 2 13.578281679756847 1 2 41.126474545105204 3.9894961111343843 2 </DataArray>
<DataArray Name="forces" NumberOfComponents="3" format="ascii" type="Float32">0 0 0 -0.014180576820565172 -0.85227098060210948 0.0 0.019845042581311478 -0.93210090448053151 0.0 -0.030920439896284513 0.5182487111467512 0.0 -0.075674240413544092 0.44937445164933798 0.0 -0.0076500427904028223 0.22025813794710158 0.0 0.037546501357497569 0.27955396868734472 0.0 0.020258738603225079 0.22538322220554385 0.0 0.013212540037129544 -1.1100254868915882 0.0 -0.0012520356594309182 0.25530581050903256 0.0 0.5853438698339769 0.35002149061194865 0.0 0.0033042961734092435 0.098661760655550546 0.0 0.0063766848562130107 0.38958600338378058 0.0 0.021553039136765567 -0.85689856355181904 0.0 0.0069684801136503105 -1.1327238346152311 0.0 0.15883687528494345 0.11881388954067834 0.0 0.002115199748810026 0.1882508380242518 0.0 0.019679728234776706 -0.86992389832063122 0.0 -0.0013251521578468983 0.11282121525666233 0.0 0.022383509887038633 -1.1052758353471162 0.0 0.054140485552241532 -0.4327775828827769 0.0 0.024839358874660669 0.14915514611035119 0.0 -0.035164914321483304 0.22336997619429033 0.0 -0.040202359073147509 0.11268930314729619 0.0 -0.0022203115316591152 0.31847361039959632 0.0 0.57727828902184319 0.13620098183123314 0.0 -0.019735272440040419 0.28820644435522302 0.0 -0.0093396949028994314 0.19410413952883204 0.0 -0.018273833231629011 0.18726422231240375 0.0 -0.044981619468156139 0.21858279359632407 0.0 0.0040080837670144493 0.24771273769530824 0.0 0.01425194343207159 0.13772183215979097 0.0 0.014650610778377371 -0.94633483507180216 0.0 -0.0042972079608994199 0.15388590724594733 0.0 -0.011836286602299628 -0.78107977660951367 0.0 0.036206327199923782 0.15388521052554477 0.0 -0.013969003475541253 0.051437956211902114 0.0 -0.058317693013932165 0.32216115202444862 0.0 0.088127714060301399 0.34491574072353082 0.0 -0.0037039238683023168 0.13619784711593375 0.0 -0.025454813762941314 0.16544708926030177 0.0 -0.015386314230655396 0.22847718243794232 0.0 0.013878226013890105 -0.94968175791771137 0.0 0.93127786135943069 -0.65227370321784983 0.0 0.022428372800929242 -1.1163033598447489 0.0 -0.017401327024164082 0.17562718163950852 0.0 0.026526956007757396 -1.0054386111970881 0.0 -0.0682699804907754 0.19742418039992457 0.0 -0.011608974373896297 0.24444114990136978 0.0 0.02103083255249405 0.24207788897732394 0.0 -0.025303141790985029 0.13654939717820061 0.0 0.0055727327444887731 -1.0747877065465417 0.0 0.032877239975822314 0.28889651591553273 0.0 -0.02711154141912292 0.3013709086281231 0.0 -0.006776089275286612 0.15763883171219473 0.0 0.0095711130053952598 0.20682613696739782 0.0 0.026753991880711314 -0.53796242677596362 0.0 -0.014762904766561669 -1.2717135526624146 0.0 -0.04523422868725463 0.15614135820257094 0.0 </DataArray>
<DataArray Name="radii" format="ascii" type="Float32">0 1.2 1 1.4 1.4 1.2 1 1 1.2 1 1.4 1 1.4 1 1.4 1 1 1.4 1 1 1.2 1 1.2 1 1.2 1 1.2 1.2 1 1 1.2 1 1.2 1 1 1.2 1 1.2 1.2 1 1 1.2 1 1 1 1 1 1 1.2 1 1 1.2 1.2 1.2 1 1 1 1 1 </DataArray>
</PointData>
<CellData/>
</Piece>
</UnstructuredGrid>
</VTKFile>
