<?xml version="1.0" ?>
<VTKFile byte_order="LittleEndian" type="UnstructuredGrid" version="0.1">
<UnstructuredGrid>
<Piece NumberOfCells="0" NumberOfPoints="10">
<Points>
<DataArray NumberOfComponents="3" format="ascii" type="Float32">7.9307041691065061 1.5999999999999999 2 32.131605805266148 1.5999999999999999 2 74.839633223111605 2.1807316028955457 2 78.888549832558311 1.5999999999999999 2 88.027138217588217 3.2002807267678302 2 4.76954156926507 2.0956653223974642 2 35.331606298201152 1.5999999999999999 2 71.693028187710695 1.5999999999999999 2 82.062520971337861 1.5999999999999999 2 85.284065221433607 1.5999999999999999 2 </DataArray>
</Points>
<Cells>
<DataArray Name="connectivity" format="ascii" type="Int32">0</DataArray>
<DataArray Name="offsets" format="ascii" type="Int32">0</DataArray>
<DataArray Name="types" format="ascii" type="UInt8">1</DataArray>
</Cells>
<PointData>
<DataArray Name="Points" NumberOfComponents="3" format="ascii" type="Float32">7.9307041691065061 1.5999999999999999 2 32.131605805266148 1.5999999999999999 2 74.839633223111605 2.1807316028955457 2 78.888549832558311 1.5999999999999999 2 88.027138217588217 3.2002807267678302 2 4.76954156926507 2.0956653223974642 2 35.331606298201152 1.5999999999999999 2 71.693028187710695 1.5999999999999999 2 82.062520971337861 1.5999999999999999 2 85.284065221433607 1.5999999999999999 2 </DataArray>
<DataArray Name="forces" NumberOfComponents="3" format="ascii" type="Float32">0.0030199608578655368 -0.00052362762859356081 0.0 0.0 0.0 0.0 0.0035160028334510181 0.00070789162202049077 0.0 -0.0020174389983051988 0.0 0.0 0.011177033782604217 0.0067040568827591825 0.0 -0.0030199608578655368 0.00052362762859356081 0.0 0.0 0.0 0.0 -0.0035160028334510181 -0.00070789162202049077 0.0 -0.014935870887157421 0.0 0.0 0.0057762761028584027 -0.0067040568827591825 0.0 </DataArray>
<DataArray Name="radii" format="ascii" type="Float32">1.5999999999999999 1.5999999999999999 1.5999999999999999 1.5999999999999999 1.5999999999999999 1.5999999999999999 1.5999999999999999 1.5999999999999999 1.5999999999999999 1.5999999999999999 </DataArray>
</PointData>
<CellData/>
</Piece>
</UnstructuredGrid>
</VTKFile>
