<?xml version="1.0" ?>
<VTKFile byte_order="LittleEndian" type="UnstructuredGrid" version="0.1">
<UnstructuredGrid>
<Piece NumberOfCells="0" NumberOfPoints="18">
<Points>
<DataArray NumberOfComponents="3" format="ascii" type="Float32">12.0406117009766 1.5999999999999999 2 20.08593184724727 1.5999999999999999 2 25.488066101055352 1.5999999999999999 2 38.860653064439163 1.5999999999999999 2 45.557976778749072 1.5999999999999999 2 54.810589883733321 2.567230988103538 2 58.541500333121661 1.5999999999999999 2 68.145883380506618 1.5999999999999999 2 92.22021350217419 1.5999999999999999 2 15.240612195958684 1.5999999999999999 2 19.90511269210392 4.7900521069930191 2 28.688066593868182 1.5999999999999999 2 42.060653557300554 1.5999999999999999 2 47.990628878339898 3.6767086083694607 2 51.760732127221459 1.5999999999999999 2 61.742783704726868 1.5999999999999999 2 64.944600008932127 1.5999999999999999 2 95.420213995050702 1.5999999999999999 2 </DataArray>
</Points>
<Cells>
<DataArray Name="connectivity" format="ascii" type="Int32">0</DataArray>
<DataArray Name="offsets" format="ascii" type="Int32">0</DataArray>
<DataArray Name="types" format="ascii" type="UInt8">1</DataArray>
</Cells>
<PointData>
<DataArray Name="Points" NumberOfComponents="3" format="ascii" type="Float32">12.0406117009766 1.5999999999999999 2 20.08593184724727 1.5999999999999999 2 25.488066101055352 1.5999999999999999 2 38.860653064439163 1.5999999999999999 2 45.557976778749072 1.5999999999999999 2 54.810589883733321 2.567230988103538 2 58.541500333121661 1.5999999999999999 2 68.145883380506618 1.5999999999999999 2 92.22021350217419 1.5999999999999999 2 15.240612195958684 1.5999999999999999 2 19.90511269210392 4.7900521069930191 2 28.688066593868182 1.5999999999999999 2 42.060653557300554 1.5999999999999999 2 47.990628878339898 3.6767086083694607 2 51.760732127221459 1.5999999999999999 2 61.742783704726868 1.5999999999999999 2 64.944600008932127 1.5999999999999999 2 95.420213995050702 1.5999999999999999 2 </DataArray>
<DataArray Name="forces" NumberOfComponents="3" format="ascii" type="Float32">0.0 0.0 0.0 0.002911332250216947 -0.053801194153934112 0.0 0.0 0.0 0.0 0.0 0.0 0.0 -0.012658269363561441 -0.011182105554778582 0.0 0.0058059088435797436 0.0019461555526762121 0.0 -0.01445793169465448 0.0 0.0 0.014457931683349745 0.0 0.0 0.0 0.0 0.0 0.0 0.0 0.0 -0.002911332250216947 0.053801194153934112 0.0 0.0 0.0 0.0 0.0 0.0 0.0 0.012658269363561441 0.011182105554778582 0.0 -0.0058059088435797436 -0.0019461555526762121 0.0 -0.0059889225439349048 0.0 0.0 0.0059889225552396397 0.0 0.0 0.0 0.0 0.0 </DataArray>
<DataArray Name="radii" format="ascii" type="Float32">1.5999999999999999 1.5999999999999999 1.5999999999999999 1.5999999999999999 1.5999999999999999 1.5999999999999999 1.5999999999999999 1.5999999999999999 1.5999999999999999 1.5999999999999999 1.5999999999999999 1.5999999999999999 1.5999999999999999 1.5999999999999999 1.5999999999999999 1.5999999999999999 1.5999999999999999 1.5999999999999999 </DataArray>
</PointData>
<CellData/>
</Piece>
</UnstructuredGrid>
</VTKFile>
