<?xml version="1.0" ?>
<VTKFile byte_order="LittleEndian" type="UnstructuredGrid" version="0.1">
<UnstructuredGrid>
<Piece NumberOfCells="0" NumberOfPoints="18">
<Points>
<DataArray NumberOfComponents="3" format="ascii" type="Float32">12.240854880179567 1.4707043348601812 2 20.036041199491653 1.4 2 25.687939919176365 1.4 2 39.060546575794632 1.4 2 46.014975474466297 1.4 2 54.438734106257456 2.9894162966250177 2 59.092407447271562 1.4 2 67.594981103539652 1.4 2 92.420113145721032 1.4 2 15.040369016755717 1.4 2 19.955003339859537 4.2106791537845378 2 28.488192775747169 1.4 2 41.860760045945085 1.4 2 47.533630182622673 3.7589143795864062 2 52.132587904697324 1.4 2 61.892605890897961 1.4 2 64.794772985578106 1.4 2 95.220314351503859 1.4 2 </DataArray>
</Points>
<Cells>
<DataArray Name="connectivity" format="ascii" type="Int32">0</DataArray>
<DataArray Name="offsets" format="ascii" type="Int32">0</DataArray>
<DataArray Name="types" format="ascii" type="UInt8">1</DataArray>
</Cells>
<PointData>
<DataArray Name="Points" NumberOfComponents="3" format="ascii" type="Float32">12.240854880179567 1.4707043348601812 2 20.036041199491653 1.4 2 25.687939919176365 1.4 2 39.060546575794632 1.4 2 46.014975474466297 1.4 2 54.438734106257456 2.9894162966250177 2 59.092407447271562 1.4 2 67.594981103539652 1.4 2 92.420113145721032 1.4 2 15.040369016755717 1.4 2 19.955003339859537 4.2106791537845378 2 28.488192775747169 1.4 2 41.860760045945085 1.4 2 47.533630182622673 3.7589143795864062 2 52.132587904697324 1.4 2 61.892605890897961 1.4 2 64.794772985578106 1.4 2 95.220314351503859 1.4 2 </DataArray>
<DataArray Name="forces" NumberOfComponents="3" format="ascii" type="Float32">-0.00054798567215301453 2.0597023357904718e-05 0.0 0.0014797714265733512 -0.053779375724019522 0.0 0.0 0.0 0.0 0.0 0.0 0.0 -0.013219006696328131 -0.02117586598461935 0.0 0.0079794583854349791 0.0056552088518309366 0.0 0.0 0.0 0.0 0.0 0.0 0.0 0.0 0.0 0.0 0.00054798567215301453 -2.0597023357904718e-05 0.0 -0.0014797714265733512 0.053779375724019522 0.0 0.0 0.0 0.0 0.0 0.0 0.0 0.013219006696328131 0.02117586598461935 0.0 -0.0079794583854349791 -0.0056552088518309366 0.0 0.0 0.0 0.0 0.0 0.0 0.0 0.0 0.0 0.0 </DataArray>
<DataArray Name="radii" format="ascii" type="Float32">1.4 1.4 1.4 1.4 1.4 1.4 1.4 1.4 1.4 1.4 1.4 1.4 1.4 1.4 1.4 1.4 1.4 1.4 </DataArray>
</PointData>
<CellData/>
</Piece>
</UnstructuredGrid>
</VTKFile>
