<?xml version="1.0" ?>
<VTKFile byte_order="LittleEndian" type="UnstructuredGrid" version="0.1">
<UnstructuredGrid>
<Piece NumberOfCells="0" NumberOfPoints="18">
<Points>
<DataArray NumberOfComponents="3" format="ascii" type="Float32">12.729847197681686 1.8262754326141051 2 20.005328357901035 1 2 26.148504340094764 1.6842822246744154 2 39.508767302604284 1.6124614159864861 2 46.542578152984291 1 2 53.793414434973258 2.7562500022969694 2 59.507028345994151 1.497824952277329 2 67.151798030693996 1.5808812488338291 2 92.845993244986474 1.5253987806250398 2 14.551376699253598 1 2 19.985716181450154 3.0017219431098248 2 28.027628354828771 1 2 41.412539319135433 1 2 47.006027504104679 2.9478914209352007 2 52.777907575981523 1 2 61.477984992175372 1.1527057462421757 2 65.237956058423762 1 2 94.794434252238418 1.0700362780413748 2 </DataArray>
</Points>
<Cells>
<DataArray Name="connectivity" format="ascii" type="Int32">0</DataArray>
<DataArray Name="offsets" format="ascii" type="Int32">0</DataArray>
<DataArray Name="types" format="ascii" type="UInt8">1</DataArray>
</Cells>
<PointData>
<DataArray Name="Points" NumberOfComponents="3" format="ascii" type="Float32">12.729847197681686 1.8262754326141051 2 20.005328357901035 1 2 26.148504340094764 1.6842822246744154 2 39.508767302604284 1.6124614159864861 2 46.542578152984291 1 2 53.793414434973258 2.7562500022969694 2 59.507028345994151 1.497824952277329 2 67.151798030693996 1.5808812488338291 2 92.845993244986474 1.5253987806250398 2 14.551376699253598 1 2 19.985716181450154 3.0017219431098248 2 28.027628354828771 1 2 41.412539319135433 1 2 47.006027504104679 2.9478914209352007 2 52.777907575981523 1 2 61.477984992175372 1.1527057462421757 2 65.237956058423762 1 2 94.794434252238418 1.0700362780413748 2 </DataArray>
<DataArray Name="forces" NumberOfComponents="3" format="ascii" type="Float32">-0.0029683646902946043 0.0013702215912452806 0.0 0.00030199718418685601 -0.031726882565749993 0.0 -0.0022601365983873274 0.00083960965760735405 0.0 -0.0020177831712568134 0.00066348073036174074 0.0 -0.0061980914816186462 -0.026738485085037407 0.0 0.024016563919077118 0.043321070307227566 0.0 0.0 0.0 0.0 0.0020076988698783985 0.00062350145097972074 0.0 0.0 0.0 0.0 0.0029683646902946043 -0.0013702215912452806 0.0 -0.00030199718418685601 0.031726882565749993 0.0 0.0022601365983873274 -0.00083960965760735405 0.0 0.0020177831712568134 -0.00066348073036174074 0.0 0.0061980914816186462 0.026738485085037407 0.0 -0.024016563919077118 -0.043321070307227566 0.0 0.0 0.0 0.0 -0.0020076988698783985 -0.00062350145097972074 0.0 0.0 0.0 0.0 </DataArray>
<DataArray Name="radii" format="ascii" type="Float32">1 1 1 1 1 1 1 1 1 1 1 1 1 1 1 1 1 1 </DataArray>
</PointData>
<CellData/>
</Piece>
</UnstructuredGrid>
</VTKFile>
