<?xml version="1.0" ?>
<VTKFile byte_order="LittleEndian" type="UnstructuredGrid" version="0.1">
<UnstructuredGrid>
<Piece NumberOfCells="0" NumberOfPoints="181">
<Points>
<DataArray NumberOfComponents="3" format="ascii" type="Float32">51.865334563322456 5.2860199963779007 2 16.309436321610722 6.7600233406829835 2 42.626164300738459 7.8073219554781987 2 51.701958937848481 2.4957454692028325 2 63.382794393717582 8.3693356882587295 2 45.703850098478114 3.491061728784012 2 57.740944963580048 8.2415462011085978 2 58.308108793791014 1 2 14.961122985667423 6.3764248983676728 2 44.652149264992111 8.9057048924347999 2 53.338169804844945 10.271603908167128 2 53.857538244467207 1 2 19.402703402432188 9.8485229709308353 2 43.898530224349855 2.7400603457998778 2 48.260986320222138 2.8963577892262324 2 57.734509396625 9.8115042592939865 2 46.903695523610189 5.3986277772148936 2 58.249733498859072 5.5793534866439822 2 59.243240691151414 6.5344963290922395 2 22.452162120407756 3.2737207668189194 2 51.498144200856991 3.7876528774688474 2 48.160112157827697 8.8013474439358319 2 54.503126185057731 5.7114309535677101 2 19.085417470744165 4.3381053345707175 2 41.398003318836103 10.266196179290798 2 51.502009512682292 1 2 62.873883942935528 10.45849500923147 2 47.45248995085467 1 2 56.39236345474724 8.8829268220780531 2 56.102574835631273 1.8598704443780001 2 45.785569341126219 10.445394278914542 2 52.319918658398691 8.8529767059960793 2 20.44100272072999 3.4230242698053188 2 55.894406443401188 3.6300617866707743 2 60.116021453837682 1 2 45.250863781222478 6.3447840023660511 2 49.99823831233131 1 2 61.173237221482061 7.9381233811958394 2 17.872854639725603 1 2 50.229069111278484 4.970689276866711 2 56.978587610439206 3.7554566326307994 2 58.328720069557086 2.6223678802377468 2 21.170136379786911 5.9426768487590627 2 51.748141993326072 6.2559482112623597 2 50.864404034178236 8.654504600975029 2 53.238661952418859 4.4959091592158869 2 60.341561627745229 4.8104474974463463 2 18.944250695561763 5.5883578418281532 2 43.800056240819075 10.400447734678297 2 54.981718430880058 3.8160668714611532 2 16.503588447709873 5.2931047336996713 2 46.854435847670821 3.3647043878929561 2 59.888294386345009 7.7030359082674744 2 56.704065089480821 1 2 46.920979509050106 7.7362933219970333 2 56.136373819107121 12.400812091999198 2 53.319863526453517 2.7738485127629975 2 18.77579195029519 8.2463320157145557 2 44.026925362381597 4.2200263423023374 2 46.21945998027406 2.0307381604494883 2 60.266522222162088 11.150083608856042 2 16.633326566308185 3.5443828558086832 2 48.944053983429349 5.0059640749015006 2 56.30832326334199 5.8995517036135672 2 60.899004165830974 6.4479552012575265 2 49.980482052324263 2.7633327714830664 2 47.867999672102286 7.1149551030930525 2 45.811383835880051 1 2 53.07288792312972 5.9688315719381304 2 20.466417660973992 4.4690993029893864 2 52.251674973661117 1 2 65.214283692796783 10.512597043122859 2 45.405285957672078 2.4916693470893181 2 55.885133493540813 7.5914413923402968 2 54.91389028648836 1 2 22.982258923656673 6.0021349144138476 2 49.012020163414682 11.639069243001231 2 54.596231308112351 7.7392708960465511 2 18.480050236876664 2.8300206349629335 2 55.72472896338099 2.7664657042900478 2 59.253050572190467 1 2 43.887873744315144 7.1270775691565724 2 49.125261831751686 1 2 62.146227677244212 7.041012751627747 2 18.820166241235434 1 2 48.830905442851048 3.8381316784445341 2 58.6410864345698 4.7378614224191375 2 60.211063060511776 2.7262349100377796 2 49.946582703740368 6.7884647787631778 2 52.11072287299362 11.613469692936055 2 52.344066641288528 4.3621547040136353 2 17.686792826341186 7.0110919001980259 2 41.42385770071202 2.5175411186524359 2 43.029144761414599 8.9458877818099207 2 53.052038809312904 1 2 63.525924758967484 7.4081681239067869 2 14.560390982007988 4.6449384262629847 2 47.104840125965602 4.3258464122897102 2 58.285217704008396 7.0256260048839998 2 56.98562479028999 2.1658048332671984 2 13.759686135429822 6.1757049007696105 2 22.308626807622463 11.502961406069101 2 46.37971731877137 8.9591739290430006 2 54.845818848435982 11.023163629040447 2 55.071668071961874 2.1074162711245825 2 60.898073309805092 1 2 21.164096337221686 10.079613072374823 2 48.27291337688159 1 2 58.966920397669519 10.487044412737577 2 45.913465746409116 4.6888172353786528 2 57.285603186285236 5.5927265730898394 2 59.857322033400152 5.7501819617333272 2 22.06210657948106 5.2141164421703428 2 50.675651158944582 4.1109965139237756 2 47.744878606801024 10.171164892160839 2 45.029636462319772 1 2 55.271599823426534 6.4055297495195243 2 18.059044628953597 4.0114896945631973 2 50.011504177407659 1.8882708666923564 2 61.784846325458375 11.612840108864395 2 49.00148061041719 2.1370815259377332 2 55.071156908012561 9.3486083931310748 2 57.48979650268496 1 2 47.086823449570979 11.802657060938643 2 52.440469394416269 7.4709311537601844 2 19.482949822748363 3.0165013336521267 2 56.699246317630973 4.6140414685579927 2 59.956196809654067 1.8230094935546282 2 46.283519892499456 6.4712883741874014 2 50.823532377255567 1 2 62.190678227456168 8.9127304952285584 2 18.444340948265321 1.9183108003348062 2 50.517261264303315 5.8408876696594945 2 57.407567347018286 2.7942512116460998 2 59.233926523582561 2.6981002364308408 2 20.092821021088128 5.6539413522941491 2 51.016053013523866 7.4356772247018723 2 49.556801725871587 8.5512465552305219 2 54.044452190036615 3.645657782409768 2 59.010598706825952 3.764374823323652 2 17.972107997609342 5.9018712479753752 2 42.997542287155767 11.938973259034949 2 54.157643583323797 4.8442868376384771 2 15.553037690863784 5.0659880559774075 2 47.992749509220317 4.1764347776284234 2 59.09919648802893 8.7368184171684966 2 55.747043307575645 1 2 45.257017931532708 7.6967992292434797 2 56.532401384539803 10.673287293023929 2 52.567972880713612 1.9613620484314507 2 19.616584896058242 7.0743575949580517 2 45.093729666651548 5.0130445643096602 2 47.095041452999325 2.4526184310510479 2 60.623434478771351 9.4764336044242459 2 17.308501879633607 4.6423458822076791 2 48.825634660027809 5.8441710824258237 2 55.536522329419036 4.8683729940975606 2 61.481244082760391 5.2411157548966347 2 17.202616289637483 1.4382211731759611 2 50.95878282629613 2.4923819890211805 2 47.697912818569186 5.9502898222716798 2 46.641398070347677 1 2 53.674145412530059 6.8840017598672407 2 21.666361646904505 4.1420583778803337 2 52.518333626993332 3.1329905132207525 2 44.66319317411655 3.539074930203018 2 56.99873066410948 7.0676628430603881 2 54.230283457442169 2.639933917842614 2 23.150920885959984 4.4895562718777748 2 49.627088794796109 10.078923159925026 2 53.666357162555855 8.6583686846612959 2 17.395539183183541 2.741233439986535 2 54.113621543811391 1.6199097230936783 2 58.512373513724853 1.7081982791283616 2 44.130653890555998 5.6262226195184279 2 48.042081362675987 2.0701402403955251 2 49.728671270413088 3.6197631298673847 2 57.942987172170518 3.9085273913747685 2 59.950427703038805 4.0020056713415615 2 49.010082533363011 7.3510713250245558 2 51.354355413161798 10.165215201967968 2 </DataArray>
</Points>
<Cells>
<DataArray Name="connectivity" format="ascii" type="Int32">0</DataArray>
<DataArray Name="offsets" format="ascii" type="Int32">0</DataArray>
<DataArray Name="types" format="ascii" type="UInt8">1</DataArray>
</Cells>
<PointData>
<DataArray Name="Points" NumberOfComponents="3" format="ascii" type="Float32">51.865334563322456 5.2860199963779007 2 16.309436321610722 6.7600233406829835 2 42.626164300738459 7.8073219554781987 2 51.701958937848481 2.4957454692028325 2 63.382794393717582 8.3693356882587295 2 45.703850098478114 3.491061728784012 2 57.740944963580048 8.2415462011085978 2 58.308108793791014 1 2 14.961122985667423 6.3764248983676728 2 44.652149264992111 8.9057048924347999 2 53.338169804844945 10.271603908167128 2 53.857538244467207 1 2 19.402703402432188 9.8485229709308353 2 43.898530224349855 2.7400603457998778 2 48.260986320222138 2.8963577892262324 2 57.734509396625 9.8115042592939865 2 46.903695523610189 5.3986277772148936 2 58.249733498859072 5.5793534866439822 2 59.243240691151414 6.5344963290922395 2 22.452162120407756 3.2737207668189194 2 51.498144200856991 3.7876528774688474 2 48.160112157827697 8.8013474439358319 2 54.503126185057731 5.7114309535677101 2 19.085417470744165 4.3381053345707175 2 41.398003318836103 10.266196179290798 2 51.502009512682292 1 2 62.873883942935528 10.45849500923147 2 47.45248995085467 1 2 56.39236345474724 8.8829268220780531 2 56.102574835631273 1.8598704443780001 2 45.785569341126219 10.445394278914542 2 52.319918658398691 8.8529767059960793 2 20.44100272072999 3.4230242698053188 2 55.894406443401188 3.6300617866707743 2 60.116021453837682 1 2 45.250863781222478 6.3447840023660511 2 49.99823831233131 1 2 61.173237221482061 7.9381233811958394 2 17.872854639725603 1 2 50.229069111278484 4.970689276866711 2 56.978587610439206 3.7554566326307994 2 58.328720069557086 2.6223678802377468 2 21.170136379786911 5.9426768487590627 2 51.748141993326072 6.2559482112623597 2 50.864404034178236 8.654504600975029 2 53.238661952418859 4.4959091592158869 2 60.341561627745229 4.8104474974463463 2 18.944250695561763 5.5883578418281532 2 43.800056240819075 10.400447734678297 2 54.981718430880058 3.8160668714611532 2 16.503588447709873 5.2931047336996713 2 46.854435847670821 3.3647043878929561 2 59.888294386345009 7.7030359082674744 2 56.704065089480821 1 2 46.920979509050106 7.7362933219970333 2 56.136373819107121 12.400812091999198 2 53.319863526453517 2.7738485127629975 2 18.77579195029519 8.2463320157145557 2 44.026925362381597 4.2200263423023374 2 46.21945998027406 2.0307381604494883 2 60.266522222162088 11.150083608856042 2 16.633326566308185 3.5443828558086832 2 48.944053983429349 5.0059640749015006 2 56.30832326334199 5.8995517036135672 2 60.899004165830974 6.4479552012575265 2 49.980482052324263 2.7633327714830664 2 47.867999672102286 7.1149551030930525 2 45.811383835880051 1 2 53.07288792312972 5.9688315719381304 2 20.466417660973992 4.4690993029893864 2 52.251674973661117 1 2 65.214283692796783 10.512597043122859 2 45.405285957672078 2.4916693470893181 2 55.885133493540813 7.5914413923402968 2 54.91389028648836 1 2 22.982258923656673 6.0021349144138476 2 49.012020163414682 11.639069243001231 2 54.596231308112351 7.7392708960465511 2 18.480050236876664 2.8300206349629335 2 55.72472896338099 2.7664657042900478 2 59.253050572190467 1 2 43.887873744315144 7.1270775691565724 2 49.125261831751686 1 2 62.146227677244212 7.041012751627747 2 18.820166241235434 1 2 48.830905442851048 3.8381316784445341 2 58.6410864345698 4.7378614224191375 2 60.211063060511776 2.7262349100377796 2 49.946582703740368 6.7884647787631778 2 52.11072287299362 11.613469692936055 2 52.344066641288528 4.3621547040136353 2 17.686792826341186 7.0110919001980259 2 41.42385770071202 2.5175411186524359 2 43.029144761414599 8.9458877818099207 2 53.052038809312904 1 2 63.525924758967484 7.4081681239067869 2 14.560390982007988 4.6449384262629847 2 47.104840125965602 4.3258464122897102 2 58.285217704008396 7.0256260048839998 2 56.98562479028999 2.1658048332671984 2 13.759686135429822 6.1757049007696105 2 22.308626807622463 11.502961406069101 2 46.37971731877137 8.9591739290430006 2 54.845818848435982 11.023163629040447 2 55.071668071961874 2.1074162711245825 2 60.898073309805092 1 2 21.164096337221686 10.079613072374823 2 48.27291337688159 1 2 58.966920397669519 10.487044412737577 2 45.913465746409116 4.6888172353786528 2 57.285603186285236 5.5927265730898394 2 59.857322033400152 5.7501819617333272 2 22.06210657948106 5.2141164421703428 2 50.675651158944582 4.1109965139237756 2 47.744878606801024 10.171164892160839 2 45.029636462319772 1 2 55.271599823426534 6.4055297495195243 2 18.059044628953597 4.0114896945631973 2 50.011504177407659 1.8882708666923564 2 61.784846325458375 11.612840108864395 2 49.00148061041719 2.1370815259377332 2 55.071156908012561 9.3486083931310748 2 57.48979650268496 1 2 47.086823449570979 11.802657060938643 2 52.440469394416269 7.4709311537601844 2 19.482949822748363 3.0165013336521267 2 56.699246317630973 4.6140414685579927 2 59.956196809654067 1.8230094935546282 2 46.283519892499456 6.4712883741874014 2 50.823532377255567 1 2 62.190678227456168 8.9127304952285584 2 18.444340948265321 1.9183108003348062 2 50.517261264303315 5.8408876696594945 2 57.407567347018286 2.7942512116460998 2 59.233926523582561 2.6981002364308408 2 20.092821021088128 5.6539413522941491 2 51.016053013523866 7.4356772247018723 2 49.556801725871587 8.5512465552305219 2 54.044452190036615 3.645657782409768 2 59.010598706825952 3.764374823323652 2 17.972107997609342 5.9018712479753752 2 42.997542287155767 11.938973259034949 2 54.157643583323797 4.8442868376384771 2 15.553037690863784 5.0659880559774075 2 47.992749509220317 4.1764347776284234 2 59.09919648802893 8.7368184171684966 2 55.747043307575645 1 2 45.257017931532708 7.6967992292434797 2 56.532401384539803 10.673287293023929 2 52.567972880713612 1.9613620484314507 2 19.616584896058242 7.0743575949580517 2 45.093729666651548 5.0130445643096602 2 47.095041452999325 2.4526184310510479 2 60.623434478771351 9.4764336044242459 2 17.308501879633607 4.6423458822076791 2 48.825634660027809 5.8441710824258237 2 55.536522329419036 4.8683729940975606 2 61.481244082760391 5.2411157548966347 2 17.202616289637483 1.4382211731759611 2 50.95878282629613 2.4923819890211805 2 47.697912818569186 5.9502898222716798 2 46.641398070347677 1 2 53.674145412530059 6.8840017598672407 2 21.666361646904505 4.1420583778803337 2 52.518333626993332 3.1329905132207525 2 44.66319317411655 3.539074930203018 2 56.99873066410948 7.0676628430603881 2 54.230283457442169 2.639933917842614 2 23.150920885959984 4.4895562718777748 2 49.627088794796109 10.078923159925026 2 53.666357162555855 8.6583686846612959 2 17.395539183183541 2.741233439986535 2 54.113621543811391 1.6199097230936783 2 58.512373513724853 1.7081982791283616 2 44.130653890555998 5.6262226195184279 2 48.042081362675987 2.0701402403955251 2 49.728671270413088 3.6197631298673847 2 57.942987172170518 3.9085273913747685 2 59.950427703038805 4.0020056713415615 2 49.010082533363011 7.3510713250245558 2 51.354355413161798 10.165215201967968 2 </DataArray>
<DataArray Name="forces" NumberOfComponents="3" format="ascii" type="Float32">-0.04014956423898508 0.27517112297974355 0.0 0.061149523859620733 0.35284858988710649 0.0 -0.022560811583821616 0.26586570150461375 0.0 -0.043363387761517047 0.20813989664452237 0.0 -0.0052658026866297947 0.27127724008873055 0.0 -0.06745854030347509 0.22042751543242309 0.0 0.02281285344100048 0.30127191880090554 0.0 -0.018320244893805127 -1.8797466294833267 0.0 0.053141200593265325 0.27099508343711648 0.0 -0.071087663511912258 0.30671396469718448 0.0 -0.10809006327229312 0.2947789169134683 0.0 0.048538954346000862 -2.1570228007972565 0.0 0.10946662046224642 0.18777071004766674 0.0 -0.0091911148411807364 0.22623362756928667 0.0 0.010274772789633402 0.2749978258171385 0.0 -0.0040931178404420288 0.20889312909035856 0.0 -0.053648037511944136 0.31997338909314976 0.0 -0.00043582245602300645 0.30136971950885616 0.0 0.022036928674826983 0.33791142511152394 0.0 -0.021613466316786623 0.23240873044282473 0.0 0.023915154328354393 0.14853493063827886 0.0 -0.071691109392530261 0.30288099906374788 0.0 0.010271850363041624 0.40333723138483435 0.0 0.044503378819458761 0.26075541111963346 0.0 0.19523567740466238 0.37756952444891478 0.0 0.0039322306851651001 -1.3809552051887253 0.0 -0.030026556096837465 0.3109303124205145 0.0 0.0262935845897867 -1.4705713322724336 0.0 -0.013367696508259072 0.25370410540339783 0.0 -0.013158938528645303 0.32100303389036444 0.0 -0.20709105185926513 0.35907867768882051 0.0 -0.039001713172832492 0.32486424766978683 0.0 0.013590910034511794 0.31549098802722375 0.0 0.064722373733229754 0.29026335448319751 0.0 -0.081365685603962512 -1.7015317969685164 0.0 -0.10806234101613887 0.28307134113535404 0.0 -0.088716745863234178 -1.9008421753377622 0.0 -0.033273497031330326 0.30295972375912045 0.0 0.026666000536267581 -1.7293859125220203 0.0 0.037063512743668814 0.28803308336311706 0.0 0.04125843019900044 0.29917966813911767 0.0 0.062495480401179471 0.31347302440231539 0.0 0.033412361177749955 0.36088153529357947 0.0 0.05556998414856118 0.3200459452568204 0.0 -0.010259790852124098 0.28524127213096417 0.0 -0.005355381831536915 0.28767209640750135 0.0 0.0095656385803300492 0.3130885174004755 0.0 0.01650493542918835 0.26468283513123081 0.0 0.14820976840165023 0.31860276554567935 0.0 -0.0044892692938601209 0.41985612237884651 0.0 0.072541233643860559 0.45114864402248722 0.0 -0.12793376250831343 0.27270355955076619 0.0 0.029477725624182896 0.2765351515965434 0.0 -0.060714815940998576 -1.6630872531457934 0.0 -0.16089765009707116 0.20646830234420141 0.0 0.024678783302278316 0.30608283083543253 0.0 -0.057671446170474205 0.21631193581234154 0.0 0.04975471659561026 0.43663702090060991 0.0 -0.03131614205690731 0.26708879711799249 0.0 -0.068516795800713043 0.31186108956744407 0.0 0.026606749556611485 0.40965995584524117 0.0 -0.019758861063498001 0.37083287453477287 0.0 0.028589466135759994 0.208755203479497 0.0 -0.048833543831473591 0.34397093122777878 0.0 -0.027133390731001517 0.33030766900463521 0.0 -0.0059962379084219641 0.2913742286136245 0.0 0.017594273549177641 0.34863305524598809 0.0 0.075154553833683746 -1.4571199832429234 0.0 0.0092651536919996502 0.20629010038784812 0.0 -0.05827037579436789 0.27351357685500099 0.0 0.042015015096066657 -1.3476668826463041 0.0 0.022089312097902269 0.30928319815746563 0.0 -0.073074501062289243 0.17634510238909706 0.0 0.015634124030997398 0.45547758614321965 0.0 -0.0069141517958470899 -2.0562051611258747 0.0 0.022000693819981959 0.21031286283409278 0.0 -0.0095836626085436527 0.3428399821467496 0.0 0.021251590728473324 0.24020604119386202 0.0 -0.13641207856883741 0.36632811657007741 0.0 0.011380447853006192 0.31643482196542827 0.0 -0.034368969107962277 -1.8160957493284826 0.0 -0.040798866892805347 0.50902124801588267 0.0 -0.070308459847743032 -1.7574264930981687 0.0 0.054208336469530105 0.42009023167219123 0.0 -0.020782666152524554 -1.4303046054585038 0.0 -0.050725694037224711 0.22327788095485585 0.0 0.067414061671073056 0.31709427048407912 0.0 0.045796301029284808 0.28287719965672209 0.0 -0.015670277951364886 0.25843021144785733 0.0 0.04774466812006041 0.46227926722280777 0.0 -0.049971571333297993 0.26883140922185761 0.0 0.18669527106714634 0.36558696222977544 0.0 0.039285832584046665 0.31477614260073961 0.0 -0.27581078029029532 0.43677646908105733 0.0 0.037595185834987999 -1.4153681266286138 0.0 -0.0084937482798282532 0.25859047255959056 0.0 -0.032993562955206945 0.20297978830536767 0.0 -0.056328289651601103 0.27110735669557634 0.0 0.039102894006348921 0.35573873617497387 0.0 0.044036898066766826 0.23774902570713155 0.0 0.11059264990959519 0.38258090171452752 0.0 0.001112659584651926 0.3472286156756732 0.0 0.020112760020790321 0.37960826182454499 0.0 -0.10796702308506151 0.42241896645923771 0.0 0.0057466350612115358 0.37637566139140727 0.0 -0.054024181605620059 -1.3151160215436339 0.0 0.14594670279440791 0.21541425593947056 0.0 0.0084645958337102867 -1.6613102068753878 0.0 -0.030914002098560517 0.31363065113877453 0.0 -0.083684248961713059 0.2718159767748794 0.0 0.0021871582482398122 0.33362010645263318 0.0 -0.029211673752310791 0.22930707620726495 0.0 -0.049976587300904117 0.27283177156219868 0.0 0.038997191695349764 0.23239800753793771 0.0 -0.07952543455191094 0.39712384112882876 0.0 -0.0088001219874786485 -1.3967940505849039 0.0 0.030398445447351097 0.32781857456465657 0.0 0.079976168379445267 0.30190859685004706 0.0 -0.073258430427069754 0.24281919435355334 0.0 0.11426742493720926 0.41992580333223273 0.0 -0.010311272065465504 0.37706467796611198 0.0 -0.055453863022183747 0.42064496968616938 0.0 -0.037323585736979803 -1.6528809040303043 0.0 -0.07456729313512217 0.31472869310037932 0.0 0.025207476040240706 0.31645790836088789 0.0 0.057482574361734873 0.10703214074327527 0.0 0.045619754020699677 0.34657734727590417 0.0 0.068568667613661205 0.32602315409161081 0.0 -0.054088285306220452 0.27841633595221643 0.0 -0.05085095899525148 -1.354786295955799 0.0 -0.044061859323278607 0.41729932593284708 0.0 0.032561396694608002 0.32304441797581568 0.0 0.018506327128629541 0.29522302291049746 0.0 0.013826950429967622 0.26400419952652587 0.0 0.034135266517344443 0.25916055876207045 0.0 0.096658393932918502 0.29863313138788983 0.0 0.020241409105135152 0.28901165307445631 0.0 -0.024326821422652634 0.28350269712605969 0.0 -0.029166974685977509 0.23819452065469637 0.0 -0.02178635552598307 0.30795139954315637 0.0 -0.006244065431411705 0.25564002655994517 0.0 -0.12179647842083931 0.23782382820198303 0.0 -0.043031073836582778 0.33169386500705433 0.0 -0.019490559138470392 0.2950010831868774 0.0 -0.07007803515303257 0.28184018351869877 0.0 0.095383712407750731 0.29900195897334025 0.0 -0.047784087418168586 -2.1243143903171973 0.0 -0.032939834449126626 0.33548924950431869 0.0 -0.066368801081221285 0.24358441436870593 0.0 -0.038453224804358754 0.29921110300770237 0.0 -0.024707727131781348 0.25424994846825305 0.0 -0.079477277255606826 0.35692877102800208 0.0 -0.0053871308244035632 0.28187348664523421 0.0 -0.021665904431346417 0.35194150004601021 0.0 -0.029227771207668011 0.17723173887020743 0.0 -0.034528332555287457 0.22279500665973667 0.0 -0.011456801829201502 0.27156550032535126 0.0 0.0059722659420092042 0.33310232256214178 0.0 0.027439860863331153 0.037190813284652346 0.0 -0.055697150149065927 0.14409667698347928 0.0 0.0049768997922276376 0.29636554033639539 0.0 0.052120208633021275 -1.4702804892132637 0.0 -0.1188838937569329 0.31108048772889962 0.0 0.020055718300894587 0.32193934595453355 0.0 -0.034861818701721198 0.35291741945740918 0.0 -0.012334302662670493 0.3408432563621942 0.0 0.023208060168905378 0.230263901200607 0.0 0.013719393937934032 0.3347072020160079 0.0 -0.014412230190053998 0.23959388853025859 0.0 -0.047217903145763324 0.27060761772345215 0.0 0.029578058711404207 0.28559105058757572 0.0 -0.050823340100358064 0.19846022602023616 0.0 -0.015037746728012696 0.3355688196239579 0.0 -0.0066838274402207798 0.27898294596187756 0.0 -0.12252440396644437 0.3874929692003623 0.0 -0.09732087712327811 0.26867334782483177 0.0 0.057314424055986052 0.36575131976178138 0.0 -0.0017323476102056867 0.31525394934273232 0.0 0.061354406358476964 0.19158160698488488 0.0 0.030953818451688868 0.27979573613065212 0.0 0.00096599829191418296 0.3786538003175588 0.0 </DataArray>
<DataArray Name="radii" format="ascii" type="Float32">1 1 1 1 1 1 1 1 1 1 1 1 1 1 1 1 1 1 1 1 1 1 1 1 1 1 1 1 1 1 1 1 1 1 1 1 1 1 1 1 1 1 1 1 1 1 1 1 1 1 1 1 1 1 1 1 1 1 1 1 1 1 1 1 1 1 1 1 1 1 1 1 1 1 1 1 1 1 1 1 1 1 1 1 1 1 1 1 1 1 1 1 1 1 1 1 1 1 1 1 1 1 1 1 1 1 1 1 1 1 1 1 1 1 1 1 1 1 1 1 1 1 1 1 1 1 1 1 1 1 1 1 1 1 1 1 1 1 1 1 1 1 1 1 1 1 1 1 1 1 1 1 1 1 1 1 1 1 1 1 1 1 1 1 1 1 1 1 1 1 1 1 1 1 1 1 1 1 1 1 1 </DataArray>
</PointData>
<CellData/>
</Piece>
</UnstructuredGrid>
</VTKFile>
