<?xml version="1.0" ?>
<VTKFile byte_order="LittleEndian" type="UnstructuredGrid" version="0.1">
<UnstructuredGrid>
<Piece NumberOfCells="0" NumberOfPoints="14">
<Points>
<DataArray NumberOfComponents="3" format="ascii" type="Float32">0 0 0 10.528190900549522 1.2 2 26.579685032241549 6.5189679858039167 2 38.748964995592473 4.3524495986865599 2 68.268022432908722 3.5982829964935958 2 92.322284790949467 3.4119048055534646 2 29.92993328900863 1.2 2 36.519065811965511 1 2 67.001696046867323 1.4 2 94.000742495319088 3.9431437769960569 2 28.736686473780026 3.3934968448334835 2 38.428259876307891 1.4150306589908856 2 96.229839479941035 1.2 2 11.218653169387171 3.4310735491288114 2 </DataArray>
</Points>
<Cells>
<DataArray Name="connectivity" format="ascii" type="Int32">0</DataArray>
<DataArray Name="offsets" format="ascii" type="Int32">0</DataArray>
<DataArray Name="types" format="ascii" type="UInt8">1</DataArray>
</Cells>
<PointData>
<DataArray Name="Points" NumberOfComponents="3" format="ascii" type="Float32">0 0 0 10.528190900549522 1.2 2 26.579685032241549 6.5189679858039167 2 38.748964995592473 4.3524495986865599 2 68.268022432908722 3.5982829964935958 2 92.322284790949467 3.4119048055534646 2 29.92993328900863 1.2 2 36.519065811965511 1 2 67.001696046867323 1.4 2 94.000742495319088 3.9431437769960569 2 28.736686473780026 3.3934968448334835 2 38.428259876307891 1.4150306589908856 2 96.229839479941035 1.2 2 11.218653169387171 3.4310735491288114 2 </DataArray>
<DataArray Name="forces" NumberOfComponents="3" format="ascii" type="Float32">0 0 0 0.013929069990915713 -0.13506817841978649 0.0 -0.024303508986254982 0.091108026449732427 0.0 -0.020240504524819708 0.1082535544901535 0.0 0.014930456182240842 0.053101235788380136 0.0 0.016203328575751727 0.031324965001395033 0.0 -0.014614924638844562 -0.050745442165366042 0.0 -0.031432459646144155 -0.28194175244315234 0.0 0.011457959151717781 -0.19890390448914555 0.0 -0.0038083377383436312 0.10101829462560932 0.0 -0.0075791756820331943 0.03751894553317113 0.0 -0.029648246811722345 0.085330107208394054 0.0 0.015218007514001392 -0.22049149627344083 0.0 -0.0050669347280455773 0.052247237227556226 0.0 </DataArray>
<DataArray Name="radii" format="ascii" type="Float32">0 1.2 1.4 1.4 1.2 1 1.2 1 1.4 1 1 1.4 1.2 1.2 </DataArray>
</PointData>
<CellData/>
</Piece>
</UnstructuredGrid>
</VTKFile>
