<?xml version="1.0" ?>
<VTKFile byte_order="LittleEndian" type="UnstructuredGrid" version="0.1">
<UnstructuredGrid>
<Piece NumberOfCells="0" NumberOfPoints="181">
<Points>
<DataArray NumberOfComponents="3" format="ascii" type="Float32">8.0274595413911154 1 2 30.213179583843907 1 2 77.013604154147686 2.2235011399790636 2 79.615874625848036 2.9530385275778572 2 88.239850844857472 3.7762838635907472 2 2.3679030387399154 1 2 34.198226028992721 2.3276559739592542 2 69.214908672422411 1 2 84.832758701935802 1 2 86.903287442432443 9.630426743916459 2 5.1995530601624553 7.6850280818663164 2 31.441042865985484 8.4999866273763054 2 75.264490802640253 8.460712759343588 2 79.13816922716417 6.3400647997430424 2 91.659047538022548 4.6623736229567276 2 3.8943172139235438 5.6966470473296722 2 34.713194802655018 4.8397731185228725 2 70.440556912119689 1 2 80.932097639624672 7.2030161897712777 2 86.734072855383786 1 2 5.0378824258706221 2.4384370321070059 2 29.24786380245683 2.5516583914014608 2 74.873054744302351 3.6943687421061999 2 77.899965725260529 4.7503821210182879 2 89.215457656168468 8.490258786196323 2 3.3994564799889759 2.1712177077765102 2 37.900942575126592 3.2905224541679119 2 71.703296721566929 5.0775347981494274 2 85.419688746301773 3.0252503403207065 2 84.541791913615626 8.2881834729329604 2 7.0186793343658236 4.5162840178195038 2 28.322171788859173 8.3923910943425657 2 71.601952321725847 8.9141314681446833 2 76.085986789681186 5.0186841455132347 2 93.035653122045943 1 2 94.570167787947426 1 2 2.430458727794242 4.7748919554860656 2 35.110994656808479 7.9504595313413846 2 73.18668369401459 3.9866906933084572 2 80.854572835953107 2.3152728894524284 2 90.984884780883547 3.5442026737871992 2 10.478726542008806 2.6912082601657792 2 32.469497564612325 2.4178131768517184 2 78.139141849259289 3.2040057506845581 2 78.775689187069773 1.7359822143563075 2 89.662777870000369 3.5103182292448616 2 1 3.6895716586995442 2 10.421908790042837 7.5548831857225967 2 34.301727195063549 1 2 68.769121979102636 6.3381981797275415 2 69.639339593798411 3.2271434799600911 2 83.510231870400261 1 2 88.169307362466071 7.0110610435737524 2 7.380043865660169 8.7529435691171695 2 33.985878329798751 6.4058476310412757 2 74.102541908982275 6.8402659498665415 2 77.29114854017547 9.4555804811422597 2 91.138230282150744 8.0876001664940045 2 5.6965913153596306 5.5484259225889172 2 32.826746692124182 5.0935756179894351 2 73.344319392334967 1 2 84.049542907154802 3.9208847725966098 2 88.853289758205321 2.2509351896634682 2 7.0010537459842892 2.4304816240196376 2 26.224743769769937 5.0506218369606399 2 30.225028333068483 7.0412463071497431 2 74.740455228348736 1 2 80.63674660417729 5.4712970555676623 2 92.882969703109993 7.422215940576085 2 4.6787028270905964 4.1875583287707316 2 36.029055707118616 1.950710638704853 2 69.9305804081811 7.8569756495609528 2 84.943940341153578 6.6034958827225427 2 83.707358030582441 5.5588919557023635 2 8.5996651625442091 7.2939933641584949 2 26.751157721753682 6.7734909203225744 2 73.254865368270302 8.1626010734491992 2 77.212985063675433 7.7073089781300119 2 93.129292971564766 4.2440691305960145 2 94.623163494797311 4.0048023789677778 2 1.4464519038496584 7.1466042788208846 2 36.530649590987942 4.6508461636657765 2 72.375460345147687 2.2437578507658245 2 82.348613659250702 2.548667249004954 2 89.774957910975488 1 2 95.629056334339808 5.1290643002369514 2 9.4472905239462417 1 2 30.825800693942227 2.3969696062619827 2 76.229533860327464 1 2 81.035541190452548 3.887759240671969 2 87.958020869236861 5.2650716398013984 2 1.8520141194806596 2.6287131953977623 2 32.99343056555594 1 2 68.779390514189075 2.4327278860200141 2 85.678411218933064 1.7074620850918467 2 86.399783650181632 7.8549724189166463 2 6.8493194804565878 6.8479309527325958 2 11.362283347416572 4.4000857703771477 2 33.26974343274356 8.114773581192388 2 73.899330866460986 9.8793777683212305 2 79.083249155895942 8.122848960445463 2 91.723541182124336 6.1739399977691001 2 3.3261490383247834 7.3772776946339613 2 33.494502019249786 3.6589437965620366 2 66.143103736220652 1 2 70.647732765240079 2.3251973243041335 2 80.845736825417148 9.0211684921583171 2 88.167025444995005 1 2 5.4266114437179827 1 2 30.102229663295052 3.8755989326698104 2 74.476172717832611 5.1850150403420736 2 79.389362614712837 4.5326964362910953 2 90.174236618161729 10.138277093191954 2 3.9945793160137364 1 2 36.821955317139448 2.8948029564507136 2 71.731510283461603 3.422140660152825 2 86.659379085705822 4.0309645436924155 2 83.096983810602751 9.458033380373811 2 99.0 2.6579652536547602 2 8.1613411196325405 3.6013967460749603 2 29.850838477704915 9.545780557124564 2 70.240623281622987 10.171298409496037 2 76.549061443773041 3.6302921508049351 2 91.560888888936148 1 2 95.119448414152274 2.4029381600938851 2 1 5.474816899851402 2 36.815238450962724 8.763134300568499 2 72.913704327103346 5.7466195234490183 2 81.039098055216428 1 2 92.218664386370676 2.649864067465391 2 8.8716866726575194 2.3432850330977337 2 31.624562384032163 1 2 77.789744036823933 1 2 79.672685037153599 1 2 89.743574768211388 5.0697494358300945 2 1 1.0595427912261424 2 11.909440792878499 8.6244864358245454 2 35.544019448335035 1 2 68.978362002058759 4.8050650251982985 2 70.43841770352546 4.2948508033224604 2 82.288134488591197 1 2 86.592336996219629 6.0821636939364758 2 9.366380143112977 9.0665489149568561 2 12.969433268559092 2.1642733601619049 2 32.100761150719634 6.7079902056496934 2 75.706544316113892 6.6666852592390651 2 79.162762894951328 10.023859575764952 2 89.974068865739824 6.7008596097040742 2 6.032414208804199 3.5413326040616169 2 31.726870008327506 3.8137272932656554 2 66.724154249206478 2.7808053454687887 2 73.811454656378118 2.4879025582386283 2 83.867671972595971 2.4347172039780967 2 87.195558615083144 2.4885302310594257 2 6.684002818481396 1 2 27.686971222900731 5.0733184898820447 2 31.008186938273557 5.3810317460714021 2 40.175953514109075 4.5352019861019341 2 75.414375482937928 2.3354495620705662 2 82.121124979213462 5.7472497839006484 2 94.507615815541058 8.1219722241076262 2 3.3915015653723435 3.5642504854239379 2 35.276113950395235 3.3619306031374778 2 39.38728975586605 3.1769572039338758 2 70.350219271154657 6.0458262456611491 2 85.38162425685897 4.8646225755516728 2 82.91046034393338 7.3390498127034896 2 8.1751063811081988 5.531223737013895 2 25.383721205781299 2.2765228770450232 2 28.494471383968484 6.6419743943852492 2 71.733670903000515 7.0545352480999073 2 77.399118618395491 6.1193645630347255 2 93.636184776093586 2.5254250197819896 2 96.260630576504155 3.3502878375581342 2 2.0099848770846291 8.9490887620447719 2 27.184900082329161 2.300529345579041 2 35.837556857877992 6.26319025805733 2 71.816066545947777 1 2 82.539381261183976 4.1185441656143045 2 90.617959626189574 2.0536086461791778 2 96.319707512701996 6.6599227936104528 2 </DataArray>
</Points>
<Cells>
<DataArray Name="connectivity" format="ascii" type="Int32">0</DataArray>
<DataArray Name="offsets" format="ascii" type="Int32">0</DataArray>
<DataArray Name="types" format="ascii" type="UInt8">1</DataArray>
</Cells>
<PointData>
<DataArray Name="Points" NumberOfComponents="3" format="ascii" type="Float32">8.0274595413911154 1 2 30.213179583843907 1 2 77.013604154147686 2.2235011399790636 2 79.615874625848036 2.9530385275778572 2 88.239850844857472 3.7762838635907472 2 2.3679030387399154 1 2 34.198226028992721 2.3276559739592542 2 69.214908672422411 1 2 84.832758701935802 1 2 86.903287442432443 9.630426743916459 2 5.1995530601624553 7.6850280818663164 2 31.441042865985484 8.4999866273763054 2 75.264490802640253 8.460712759343588 2 79.13816922716417 6.3400647997430424 2 91.659047538022548 4.6623736229567276 2 3.8943172139235438 5.6966470473296722 2 34.713194802655018 4.8397731185228725 2 70.440556912119689 1 2 80.932097639624672 7.2030161897712777 2 86.734072855383786 1 2 5.0378824258706221 2.4384370321070059 2 29.24786380245683 2.5516583914014608 2 74.873054744302351 3.6943687421061999 2 77.899965725260529 4.7503821210182879 2 89.215457656168468 8.490258786196323 2 3.3994564799889759 2.1712177077765102 2 37.900942575126592 3.2905224541679119 2 71.703296721566929 5.0775347981494274 2 85.419688746301773 3.0252503403207065 2 84.541791913615626 8.2881834729329604 2 7.0186793343658236 4.5162840178195038 2 28.322171788859173 8.3923910943425657 2 71.601952321725847 8.9141314681446833 2 76.085986789681186 5.0186841455132347 2 93.035653122045943 1 2 94.570167787947426 1 2 2.430458727794242 4.7748919554860656 2 35.110994656808479 7.9504595313413846 2 73.18668369401459 3.9866906933084572 2 80.854572835953107 2.3152728894524284 2 90.984884780883547 3.5442026737871992 2 10.478726542008806 2.6912082601657792 2 32.469497564612325 2.4178131768517184 2 78.139141849259289 3.2040057506845581 2 78.775689187069773 1.7359822143563075 2 89.662777870000369 3.5103182292448616 2 1 3.6895716586995442 2 10.421908790042837 7.5548831857225967 2 34.301727195063549 1 2 68.769121979102636 6.3381981797275415 2 69.639339593798411 3.2271434799600911 2 83.510231870400261 1 2 88.169307362466071 7.0110610435737524 2 7.380043865660169 8.7529435691171695 2 33.985878329798751 6.4058476310412757 2 74.102541908982275 6.8402659498665415 2 77.29114854017547 9.4555804811422597 2 91.138230282150744 8.0876001664940045 2 5.6965913153596306 5.5484259225889172 2 32.826746692124182 5.0935756179894351 2 73.344319392334967 1 2 84.049542907154802 3.9208847725966098 2 88.853289758205321 2.2509351896634682 2 7.0010537459842892 2.4304816240196376 2 26.224743769769937 5.0506218369606399 2 30.225028333068483 7.0412463071497431 2 74.740455228348736 1 2 80.63674660417729 5.4712970555676623 2 92.882969703109993 7.422215940576085 2 4.6787028270905964 4.1875583287707316 2 36.029055707118616 1.950710638704853 2 69.9305804081811 7.8569756495609528 2 84.943940341153578 6.6034958827225427 2 83.707358030582441 5.5588919557023635 2 8.5996651625442091 7.2939933641584949 2 26.751157721753682 6.7734909203225744 2 73.254865368270302 8.1626010734491992 2 77.212985063675433 7.7073089781300119 2 93.129292971564766 4.2440691305960145 2 94.623163494797311 4.0048023789677778 2 1.4464519038496584 7.1466042788208846 2 36.530649590987942 4.6508461636657765 2 72.375460345147687 2.2437578507658245 2 82.348613659250702 2.548667249004954 2 89.774957910975488 1 2 95.629056334339808 5.1290643002369514 2 9.4472905239462417 1 2 30.825800693942227 2.3969696062619827 2 76.229533860327464 1 2 81.035541190452548 3.887759240671969 2 87.958020869236861 5.2650716398013984 2 1.8520141194806596 2.6287131953977623 2 32.99343056555594 1 2 68.779390514189075 2.4327278860200141 2 85.678411218933064 1.7074620850918467 2 86.399783650181632 7.8549724189166463 2 6.8493194804565878 6.8479309527325958 2 11.362283347416572 4.4000857703771477 2 33.26974343274356 8.114773581192388 2 73.899330866460986 9.8793777683212305 2 79.083249155895942 8.122848960445463 2 91.723541182124336 6.1739399977691001 2 3.3261490383247834 7.3772776946339613 2 33.494502019249786 3.6589437965620366 2 66.143103736220652 1 2 70.647732765240079 2.3251973243041335 2 80.845736825417148 9.0211684921583171 2 88.167025444995005 1 2 5.4266114437179827 1 2 30.102229663295052 3.8755989326698104 2 74.476172717832611 5.1850150403420736 2 79.389362614712837 4.5326964362910953 2 90.174236618161729 10.138277093191954 2 3.9945793160137364 1 2 36.821955317139448 2.8948029564507136 2 71.731510283461603 3.422140660152825 2 86.659379085705822 4.0309645436924155 2 83.096983810602751 9.458033380373811 2 99.0 2.6579652536547602 2 8.1613411196325405 3.6013967460749603 2 29.850838477704915 9.545780557124564 2 70.240623281622987 10.171298409496037 2 76.549061443773041 3.6302921508049351 2 91.560888888936148 1 2 95.119448414152274 2.4029381600938851 2 1 5.474816899851402 2 36.815238450962724 8.763134300568499 2 72.913704327103346 5.7466195234490183 2 81.039098055216428 1 2 92.218664386370676 2.649864067465391 2 8.8716866726575194 2.3432850330977337 2 31.624562384032163 1 2 77.789744036823933 1 2 79.672685037153599 1 2 89.743574768211388 5.0697494358300945 2 1 1.0595427912261424 2 11.909440792878499 8.6244864358245454 2 35.544019448335035 1 2 68.978362002058759 4.8050650251982985 2 70.43841770352546 4.2948508033224604 2 82.288134488591197 1 2 86.592336996219629 6.0821636939364758 2 9.366380143112977 9.0665489149568561 2 12.969433268559092 2.1642733601619049 2 32.100761150719634 6.7079902056496934 2 75.706544316113892 6.6666852592390651 2 79.162762894951328 10.023859575764952 2 89.974068865739824 6.7008596097040742 2 6.032414208804199 3.5413326040616169 2 31.726870008327506 3.8137272932656554 2 66.724154249206478 2.7808053454687887 2 73.811454656378118 2.4879025582386283 2 83.867671972595971 2.4347172039780967 2 87.195558615083144 2.4885302310594257 2 6.684002818481396 1 2 27.686971222900731 5.0733184898820447 2 31.008186938273557 5.3810317460714021 2 40.175953514109075 4.5352019861019341 2 75.414375482937928 2.3354495620705662 2 82.121124979213462 5.7472497839006484 2 94.507615815541058 8.1219722241076262 2 3.3915015653723435 3.5642504854239379 2 35.276113950395235 3.3619306031374778 2 39.38728975586605 3.1769572039338758 2 70.350219271154657 6.0458262456611491 2 85.38162425685897 4.8646225755516728 2 82.91046034393338 7.3390498127034896 2 8.1751063811081988 5.531223737013895 2 25.383721205781299 2.2765228770450232 2 28.494471383968484 6.6419743943852492 2 71.733670903000515 7.0545352480999073 2 77.399118618395491 6.1193645630347255 2 93.636184776093586 2.5254250197819896 2 96.260630576504155 3.3502878375581342 2 2.0099848770846291 8.9490887620447719 2 27.184900082329161 2.300529345579041 2 35.837556857877992 6.26319025805733 2 71.816066545947777 1 2 82.539381261183976 4.1185441656143045 2 90.617959626189574 2.0536086461791778 2 96.319707512701996 6.6599227936104528 2 </DataArray>
<DataArray Name="forces" NumberOfComponents="3" format="ascii" type="Float32">-0.0054659626676191175 -0.54716807900067366 0.0 -0.0063571103463171408 -0.68282979142179323 0.0 0.010959514196407893 0.12062630954436845 0.0 0.057988332422182112 0.10355855991957794 0.0 0.0089939254760885157 0.14456250967103576 0.0 0.057051203642011994 -0.64863290110595884 0.0 0.023949835418886511 0.12186489702511233 0.0 0.018737831516462508 -0.68029628326134073 0.0 0.040999939434737148 -0.79477699577608796 0.0 0.044034075263049074 0.15338066807689196 0.0 -0.033485934836112008 0.087707360224961575 0.0 -0.016559965030701489 0.12876994215230822 0.0 -0.013536476256199845 0.12541103664377548 0.0 -0.017024014444500774 0.11879647687681026 0.0 -0.10815133285107825 0.22856097637647871 0.0 -0.0273072982702601 0.21205679800544111 0.0 -0.0075856585132305643 0.21306901091246669 0.0 0.049686548892736271 -0.64905360126374045 0.0 -0.041806004641115349 0.15535256643411288 0.0 0.0080759273095577788 -0.83306206002175442 0.0 0.0036904563955630701 0.13158987669673275 0.0 -0.044748527422419193 0.061426048616998075 0.0 0.0041731583098189029 0.16799470153263446 0.0 -0.018493523283270558 0.12067163118670265 0.0 0.0074252680730804398 0.12681805306377747 0.0 0.022792639666163007 0.17543092822373418 0.0 0.042191043661732541 0.12868433770708312 0.0 0.035758766319250762 0.19909619783452243 0.0 0.04454746837807376 0.19176230884720874 0.0 0.058246302544001399 0.25294481773885158 0.0 -0.075541292422402984 0.25522537277717133 0.0 -0.090864384058729042 0.18872315019447863 0.0 -0.062445954389116556 0.11376215043426054 0.0 0.034675220669628498 0.16393368192091867 0.0 -0.0015593662842214029 -0.48354642149459792 0.0 -0.019172134344137032 -0.69565024073411807 0.0 0.018028652875730355 0.15371935509383802 0.0 0.037935564603010175 0.15956081135249089 0.0 -0.0023751543869992287 0.15260147002378968 0.0 0.02998109281586063 0.10828322414571273 0.0 0.051786988578209278 0.14313791815447047 0.0 -0.02930410779360143 0.11754995653246675 0.0 0.051736114650275666 0.10599502179654557 0.0 0.01766009113682343 0.13388797074901146 0.0 -0.0047274320170782591 0.15027607095626272 0.0 -0.029259071491250357 0.08064047292519666 0.0 -0.58135476073059555 0.16153132236445222 0.0 0.017327298331708721 0.22155046630205008 0.0 -0.044270992474389259 -0.68283725672950701 0.0 0.021289179849321993 0.20263168165923756 0.0 0.017857939823063773 0.13746656780095767 0.0 0.012340248167470647 -0.56013581762288944 0.0 -0.081566188477546001 0.18884784656417244 0.0 -0.061323498248852609 0.084259113814916534 0.0 -0.00043697878450854599 0.22428018603462802 0.0 0.062618731642297421 0.237132092421593 0.0 -0.031616518366603764 0.23716365217959864 0.0 0.038383690840464932 0.19266821732358003 0.0 -0.053327860423061063 0.22339373557712291 0.0 0.017946735671529324 0.21422143557183659 0.0 -0.0056138747095113573 -0.76457994572528909 0.0 -0.00036513589454012507 0.10385326584443452 0.0 -0.029953640245921703 0.088769379531163206 0.0 -0.012627947746779986 0.083094266563204511 0.0 0.026064696903780549 0.17390501257828433 0.0 -0.014547320713920869 0.14100490024308443 0.0 -0.0052460232607444701 -0.66130457660895758 0.0 -0.032910924124091245 0.1590756502764657 0.0 0.044893176322070877 0.17407600967740175 0.0 -0.021650044931769807 0.17079339358739382 0.0 -0.12861019026519163 0.21477733986547265 0.0 0.010361450537720942 0.19571800768861575 0.0 -0.020107840314433592 0.21998811691187178 0.0 -0.018359883333691179 0.16558592624975005 0.0 0.034865472969550504 0.15145318115571407 0.0 0.001810569615861457 0.18741091606673799 0.0 -0.025176593488578189 0.20090594528682218 0.0 -0.0032919113429366945 0.22872521491016592 0.0 -0.078366698703986659 0.14794545023108385 0.0 -0.035516463279235855 0.12581293194543958 0.0 -0.068575574544676415 0.13965010530861338 0.0 0.029312408783105703 0.13321259234839256 0.0 0.018183616336448993 0.16833672255900017 0.0 0.020871794497975465 0.10642824934495992 0.0 0.039480504868451616 -0.87354401137638549 0.0 -0.017590787214688999 0.1455489566165199 0.0 0.013965150108530916 -0.62672796489543958 0.0 0.041356918338295856 0.14514218168485499 0.0 0.0027154065129115224 -0.8371180733121113 0.0 0.046441759749055789 0.15855994000493512 0.0 0.17560127873859838 0.18970909513305534 0.0 -0.11920357551779197 -0.020182339914788724 0.0 -0.031933012384214421 -0.61598905767390977 0.0 0.0032426857410251253 0.089550131759627685 0.0 -0.0091163790834163094 0.18234374982987422 0.0 0.073673444332074151 0.1091701818966684 0.0 0.024582277867486749 0.16678940698234732 0.0 -0.083190639892383511 0.15340822961951506 0.0 0.034238263832101892 0.25824651331105336 0.0 0.035467562029098391 0.17880010214974379 0.0 0.053061874075560421 0.12907734319498021 0.0 -0.016811001353323946 0.21416428061976134 0.0 -0.067078035446451495 0.21060947156069673 0.0 0.0087474160134666246 0.16022368386968422 0.0 -0.0098431684748090525 -0.64592160035441193 0.0 0.0020126469701306771 0.084714347694308717 0.0 0.048113129890369075 0.16960552967280992 0.0 0.024878259252400975 -0.69151037516507474 0.0 -0.043364356010336502 -0.49605474788530218 0.0 0.0030327476626490768 0.10741334428923835 0.0 0.015438507865963756 0.17748788609123334 0.0 0.010303323543285808 0.10347776372812026 0.0 0.044875939917525406 0.077918441766953811 0.0 -0.016618052861837262 -0.80345801052886756 0.0 0.04094417266431738 0.081184525372508379 0.0 -0.035381037682140404 0.15583674609621287 0.0 0.042658841417778703 0.25616615779772639 0.0 -0.11119943517692656 0.093446754638347687 0.0 0.68149390006291333 0.10335758612675192 0.0 -0.12416042005871671 0.1318988403762808 0.0 -0.0093591489453217908 0.10476118866243339 0.0 -0.012092414166488055 0.14865290353746657 0.0 -0.019408536446508196 0.11595760807695449 0.0 -0.0022510829363776019 -0.64954790889954217 0.0 0.044684616056242854 0.11994048084102144 0.0 -0.43710980968206831 0.13236551038373495 0.0 -0.014872683329364922 0.23805098535402869 0.0 0.064619251153582968 0.19290314055267568 0.0 -0.022687700186116322 -0.6669155360188026 0.0 0.013241036268937245 0.086815397051648785 0.0 -0.0097886777829241378 0.1137013233441066 0.0 -0.029189117625214256 -0.64830538740090693 0.0 -0.00019292681928967381 -0.92681159070517039 0.0 -0.020563162710622529 -0.75685294798640723 0.0 0.17243781417165818 0.099530351276839013 0.0 -0.74463640176497059 -0.1501997614034446 0.0 0.085074917545634093 0.14355078011735728 0.0 0.028298290337415433 -0.90389307112571526 0.0 0.045489764532067198 0.17664497727132622 0.0 0.040893866915101905 0.12990630347963089 0.0 -0.0040869226589732577 -0.48877113470322908 0.0 -0.022059035030009833 0.029496176968451665 0.0 -0.062777010831316038 0.19443301162585325 0.0 0.042276607024436474 0.10554784903594006 0.0 0.0077818684987044917 0.21461140684124022 0.0 0.049489666207236299 0.1397988240832948 0.0 0.011059698154346827 0.13325502024344668 0.0 -0.048569387259454623 0.18208932866098682 0.0 0.0069337085495757567 0.13693859147030896 0.0 0.037780057958071739 0.16293175683577654 0.0 -0.036514686260383178 0.13026915389107344 0.0 0.037763735646364427 0.11530395348460076 0.0 0.025899774926234832 0.09287250534673909 0.0 -0.010743426287242508 0.1308422110663362 0.0 -0.030562798667758906 -0.52253951277264821 0.0 0.024297991430097934 0.19352975256977642 0.0 0.032582539809518835 0.15470711678189536 0.0 -0.0018519720298137976 0.21367476590739837 0.0 0.0080962834543186202 0.10327950068880118 0.0 -0.019909375366561274 0.15215651583014256 0.0 0.11083696346221737 0.07495787325160147 0.0 -0.06037898363318589 0.11378182058805707 0.0 0.0077822841096194528 0.25284442101351562 0.0 0.036792035299607423 0.18820445335865388 0.0 0.0088596444644188366 0.16541787699100396 0.0 -0.074247661082299854 0.15933778404505899 0.0 -0.0051201657794390926 0.19198820136209388 0.0 0.020063871335937792 0.15486059140684333 0.0 0.06655493399746315 0.12309222747471214 0.0 0.0067873287380785935 0.18667470831094438 0.0 0.012753937800231319 0.15252353512568478 0.0 0.049454854738076842 0.19791124146481917 0.0 0.022799226320585508 0.12538657115581667 0.0 0.0080830019220672344 0.15835182529140474 0.0 0.032296126804322006 0.10637437537626949 0.0 0.079545278526563318 0.13914758525398363 0.0 0.022155423713166075 0.1505384762091399 0.0 0.048530014044914804 -0.76565247397497538 0.0 0.041704758166175249 0.12629284967818361 0.0 -0.0031091928203104691 0.15621595229776103 0.0 -0.013063658296802505 0.16150111196125325 0.0 </DataArray>
<DataArray Name="radii" format="ascii" type="Float32">1 1 1 1 1 1 1 1 1 1 1 1 1 1 1 1 1 1 1 1 1 1 1 1 1 1 1 1 1 1 1 1 1 1 1 1 1 1 1 1 1 1 1 1 1 1 1 1 1 1 1 1 1 1 1 1 1 1 1 1 1 1 1 1 1 1 1 1 1 1 1 1 1 1 1 1 1 1 1 1 1 1 1 1 1 1 1 1 1 1 1 1 1 1 1 1 1 1 1 1 1 1 1 1 1 1 1 1 1 1 1 1 1 1 1 1 1 1 1 1 1 1 1 1 1 1 1 1 1 1 1 1 1 1 1 1 1 1 1 1 1 1 1 1 1 1 1 1 1 1 1 1 1 1 1 1 1 1 1 1 1 1 1 1 1 1 1 1 1 1 1 1 1 1 1 1 1 1 1 1 1 </DataArray>
</PointData>
<CellData/>
</Piece>
</UnstructuredGrid>
</VTKFile>
