<?xml version="1.0" ?>
<VTKFile byte_order="LittleEndian" type="UnstructuredGrid" version="0.1">
<UnstructuredGrid>
<Piece NumberOfCells="0" NumberOfPoints="3">
<Points>
<DataArray NumberOfComponents="3" format="ascii" type="Float32">0 0 0 91.369607483643165 2.020463448030251 2 37.491901293554449 1 2 </DataArray>
</Points>
<Cells>
<DataArray Name="connectivity" format="ascii" type="Int32">0</DataArray>
<DataArray Name="offsets" format="ascii" type="Int32">0</DataArray>
<DataArray Name="types" format="ascii" type="UInt8">1</DataArray>
</Cells>
<PointData>
<DataArray Name="Points" NumberOfComponents="3" format="ascii" type="Float32">0 0 0 91.369607483643165 2.020463448030251 2 37.491901293554449 1 2 </DataArray>
<DataArray Name="forces" NumberOfComponents="3" format="ascii" type="Float32">0 0 0 0.0369135934290344 -0.0083641959153068456 0.0 -0.025314740184347262 -0.066285358847987863 0.0 </DataArray>
<DataArray Name="radii" format="ascii" type="Float32">0 1 1 </DataArray>
</PointData>
<CellData/>
</Piece>
</UnstructuredGrid>
</VTKFile>
