<?xml version="1.0" ?>
<VTKFile byte_order="LittleEndian" type="UnstructuredGrid" version="0.1">
<UnstructuredGrid>
<Piece NumberOfCells="0" NumberOfPoints="27">
<Points>
<DataArray NumberOfComponents="3" format="ascii" type="Float32">0 0 0 10.09187437796251 1.2 2 24.845673463071325 7.7394452883643741 2 38.279657099876026 5.992700998734521 2 68.063247952702397 3.3336514860127715 2 93.582523060537113 4.9526199817099572 2 10.01629071004764 5.0421243652923096 2 29.112620831935537 1.2 2 68.757830429053897 8.4108750140079067 2 36.556468960397048 1 2 67.082550325335703 1.4 2 94.396268836522793 6.7420698802682502 2 28.555454759541139 4.9708400330977653 2 38.448503854686486 1.4 2 95.71905080060381 1.2 2 26.375549304056609 2.7784237371636755 2 39.503916515801301 3.6882410348482932 2 11.135607643533978 3.2106705190065741 2 24.497391226583009 3.1396177909659482 2 28.119839873298673 3.1036024737155703 2 66.738491841777773 5.1522238777184164 2 96.719057202560165 2.9668994004261422 2 97.62523183154623 4.6062757867355764 2 24.79430829128977 5.4775647676402643 2 13.403310932924585 7.2880466415435201 2 12.11577095296637 5.2800738190005356 2 67.576347050420196 6.9530908053514384 2 </DataArray>
</Points>
<Cells>
<DataArray Name="connectivity" format="ascii" type="Int32">0</DataArray>
<DataArray Name="offsets" format="ascii" type="Int32">0</DataArray>
<DataArray Name="types" format="ascii" type="UInt8">1</DataArray>
</Cells>
<PointData>
<DataArray Name="Points" NumberOfComponents="3" format="ascii" type="Float32">0 0 0 10.09187437796251 1.2 2 24.845673463071325 7.7394452883643741 2 38.279657099876026 5.992700998734521 2 68.063247952702397 3.3336514860127715 2 93.582523060537113 4.9526199817099572 2 10.01629071004764 5.0421243652923096 2 29.112620831935537 1.2 2 68.757830429053897 8.4108750140079067 2 36.556468960397048 1 2 67.082550325335703 1.4 2 94.396268836522793 6.7420698802682502 2 28.555454759541139 4.9708400330977653 2 38.448503854686486 1.4 2 95.71905080060381 1.2 2 26.375549304056609 2.7784237371636755 2 39.503916515801301 3.6882410348482932 2 11.135607643533978 3.2106705190065741 2 24.497391226583009 3.1396177909659482 2 28.119839873298673 3.1036024737155703 2 66.738491841777773 5.1522238777184164 2 96.719057202560165 2.9668994004261422 2 97.62523183154623 4.6062757867355764 2 24.79430829128977 5.4775647676402643 2 13.403310932924585 7.2880466415435201 2 12.11577095296637 5.2800738190005356 2 67.576347050420196 6.9530908053514384 2 </DataArray>
<DataArray Name="forces" NumberOfComponents="3" format="ascii" type="Float32">0 0 0 -0.023397226427385676 -0.28095287022245891 0.0 0.0030592759261922342 0.19512302535923959 0.0 -0.018981967669379041 0.18935672426072014 0.0 0.003754332079476036 0.099368627090451342 0.0 0.02651210592035784 0.077612890760005673 0.0 -0.017778000330306479 0.057015822361943011 0.0 -0.017895455758794032 -0.14972746539894874 0.0 0.028656205247540513 0.17229248641127368 0.0 -0.02630650164545012 -0.14538009575020655 0.0 -0.0031166796064771296 -0.57579221977521078 0.0 0.039921752337742492 0.091209638424432415 0.0 -0.0018810175859737266 0.049305287761517699 0.0 -0.026109892753043429 -0.16178257962010861 0.0 0.043935797131928273 -0.31800936498016752 0.0 -0.029719034998170329 0.060372293685479583 0.0 -0.010396377856929651 0.13388134327057952 0.0 -0.018217914711032811 0.088827188922859207 0.0 -0.050080044760910075 0.082417453911013877 0.0 -0.011100722438368169 0.048760629065504046 0.0 0.027186925102604342 0.12952108214624969 0.0 0.027528297214686859 0.061024718978425034 0.0 0.0053510412389619344 0.10045460905621037 0.0 0.032866135799826446 0.10546847449490894 0.0 -0.0071342081032834716 0.0922461972726413 0.0 -0.0085046856090356705 0.086071062862965911 0.0 0.063922823957663313 0.10751908635455668 0.0 </DataArray>
<DataArray Name="radii" format="ascii" type="Float32">0 1.2 1.4 1.4 1.2 1 1 1.2 1 1 1.4 1 1 1.4 1.2 1 1.2 1.2 1.2 1 1.2 1 1 1 1.2 1.2 1 </DataArray>
</PointData>
<CellData/>
</Piece>
</UnstructuredGrid>
</VTKFile>
