<?xml version="1.0" ?>
<VTKFile byte_order="LittleEndian" type="UnstructuredGrid" version="0.1">
<UnstructuredGrid>
<Piece NumberOfCells="0" NumberOfPoints="181">
<Points>
<DataArray NumberOfComponents="3" format="ascii" type="Float32">8.1180120195521344 1.2 2 30.094785224088064 1.2 2 77.102570874379182 2.828238881516532 2 79.549062651212822 2.9754983323735411 2 88.235108900584876 3.9736022185872031 2 2.627886439664096 1.2 2 34.564998234964946 2.7142032009683117 2 68.998137389510717 1.2 2 84.648658534298434 1.2 2 87.024599660627374 10.493067200018089 2 5.1485485768525034 8.4032504014738265 2 31.518779035658493 9.4476694835142379 2 75.372331387867504 9.2124813824934986 2 79.116970085455321 6.8723860036341744 2 91.629069994676939 4.8099771558011284 2 3.977656521398707 6.488508870501029 2 34.800579431926842 5.0662332735900781 2 70.316261711553366 1.2 2 80.94071588955903 7.7656219659591894 2 87.033948700085958 1.2 2 4.8370658009232121 2.6647504167346052 2 28.581406759006743 2.5888109548132308 2 75.022965719398329 3.540632665006834 2 78.060196879733809 4.7523986389278354 2 88.967949068003307 9.1683464651602922 2 3.0450526548824288 2.6528557578023726 2 37.954351021674867 3.5099730744608983 2 71.605765672332595 5.3613695829967192 2 85.622440702898274 2.956458409896848 2 84.961881689485978 9.4287376978987556 2 6.8514708029392253 4.9384156732764399 2 27.658798000768265 9.0077772443863875 2 71.749124484864296 9.8653102462687325 2 75.949097953531691 5.5253596927746189 2 93.589275372668254 1.2 2 95.040912817692032 1.2 2 2.7039902440293413 5.5792978967027498 2 35.623069830742118 8.694387750901976 2 73.068043221253504 4.3781594054721484 2 80.899510313428664 2.8610638387470311 2 91.061524311136566 2.8928318689721206 2 10.767036638105704 2.8361741323130154 2 32.392406476458817 2.7683127252811457 2 78.379966103910064 2.9764438716561545 2 78.666523023831218 1.2 2 89.897666514655228 3.6778146286008528 2 1.2 3.9849041246576875 2 10.92718710819706 8.0354564538990889 2 33.993065490917147 1.2 2 68.604099835939522 6.7195990876212095 2 69.535907982167032 3.2821664482934154 2 83.442127115913081 1.2 2 88.447525401965422 7.1907486488528134 2 7.178640796265995 9.4564370450900341 2 34.10355467012927 7.0114050706662905 2 74.256008771089171 7.092912530915104 2 77.237298349017252 10.376615459351907 2 91.2697514215442 8.8412424022306926 2 5.5873742768370471 6.0828399766406749 2 32.842566242652225 5.4492742846317626 2 73.500714964567393 1.2 2 84.176084464678354 4.2303780029318956 2 89.009873308031203 2.4326715270569901 2 7.1625208530535076 2.627466621073264 2 26.216566627218366 5.0007568828910154 2 30.019878478794411 7.901461884550617 2 74.666890715905268 1.2 2 80.67172065863771 5.864025982489764 2 93.209981037968504 8.2486172074962933 2 4.6063895454288737 4.5000678828992315 2 36.391988834006142 1.2 2 69.859838029835615 8.6872576270729738 2 84.970412319148281 7.3737450655557586 2 83.780462607105633 6.1405248021774179 2 8.8148987371392504 7.8265263486068042 2 26.444223864249611 7.1700562925624709 2 73.40043016650985 8.6509604008413508 2 77.343423017773404 8.2297720250891118 2 93.401807835316362 5.0510440462989559 2 94.683930015472555 4.0876560476661705 2 1.2 7.6047024176947646 2 36.767421210056682 4.9959407859011273 2 72.521019552954073 2.1571989316628288 2 82.501478742440099 2.8110822197425205 2 89.811400027849942 1.2 2 95.74009788973207 5.2869747321728084 2 9.5505696703061655 1.2 2 30.516519910150937 2.6412792785543044 2 76.249757503223449 1.2 2 81.108426761425974 4.3060204384199432 2 88.332361101453671 5.4446262062201232 2 1.2 2.5776606386875849 2 32.827825230608944 1.2 2 68.432832613715206 2.6307663619382384 2 85.806938044965037 1.2 2 86.829181521114506 8.371014778640367 2 6.9217540986147865 7.2532010827589 2 11.317465802770474 4.712255536128632 2 33.569880073806786 9.1248511547272155 2 73.826086886337293 10.842865318788901 2 79.138747706308067 8.932248416796849 2 92.14392574475967 6.6200497648967129 2 3.078061316346421 8.1049684831602615 2 33.523663028240762 3.7754109922537569 2 66.191787066813163 1.2 2 70.634430057588801 2.579436598851625 2 81.198038297461594 9.722525947783657 2 88.308068727016391 1.2 2 5.4275722468647407 1.2 2 29.756073549633857 4.0462891394631066 2 74.443047097855569 5.1874859855358508 2 79.433905519591363 4.7864387814122624 2 90.435400343920008 10.865895715212849 2 4.0246871472869294 1.2 2 36.926387838982201 2.6585356683934647 2 71.679312005849297 3.5305087913339217 2 86.533630593905784 4.3735429632143434 2 83.150037455342328 10.543189638199449 2 98.8 2.5295864748316141 2 8.2232520157226929 3.7707531431615893 2 29.488424526129901 10.151760974629592 2 69.968279524116767 11.022055892145888 2 76.526645018592475 4.1752067130421278 2 92.261926282097676 1.2 2 95.59679096420281 2.4597077271277366 2 1.2 5.7236332297821217 2 37.536430183098211 9.6673697283360482 2 72.806985964711728 6.3424811946057877 2 81.044941539351555 1.2 2 92.44440059791647 3.1460962649973392 2 9.2336089061802209 2.63921714523021 2 31.506218586784296 1.2 2 77.489038282489133 1.2 2 79.845002803897358 1.2 2 90.064165735623249 5.4317793646222912 2 1.2 1.2 2 12.407734770776633 9.5878671746866289 2 35.284446274587665 1.2 2 68.756048252110489 4.9934126490878556 2 70.212420378334869 4.7214877988827748 2 82.259177936383679 1.2 2 86.654769510342504 6.3531767582046381 2 9.5263117204030507 9.8659559192627171 2 12.955606242107535 2.2628421869099298 2 32.132248505170637 7.3842277169881374 2 75.816356856852238 7.2071192052807271 2 79.398107388203826 11.082316959725514 2 90.244383634911983 7.1957509448397285 2 6.0321741999925509 3.4688659011647958 2 31.501339834931507 4.2155394786998919 2 66.515157058254601 3.1709017102506905 2 73.687187530567073 3.0121022857560549 2 84.070472886770148 2.7695529230885261 2 87.184927107857405 2.7635958536913869 2 6.6615513427633859 1.2 2 27.730003825161493 5.355828288478401 2 30.850652370305465 5.959999238244948 2 39.996559984074231 4.7989696760461609 2 75.499831504526455 2.2917203392708596 2 82.256819879408397 6.2840324655547413 2 95.147201044488398 8.639998592079202 2 3.0310496514338663 3.9387733003382173 2 35.73511492709396 3.4786868619217546 2 39.223123876038898 3.2515542668767692 2 70.287462385363696 6.6291546934014267 2 85.308861829849278 5.208078251718673 2 83.008527655066942 8.2607388809459881 2 8.3899484882668922 5.8304885727867601 2 25.253081968563553 2.2677593988714326 2 28.420939337696186 7.0345716427024287 2 71.691554449079362 7.7050549723936514 2 77.585660676541224 6.2510568403348206 2 93.762797745616055 2.8179128682327215 2 96.636314372132588 3.4633178225810783 2 1.7037696062025456 9.8032430095816743 2 26.91136285425916 2.3263206821469202 2 35.996036930582719 6.6727442370251318 2 71.755326756725381 1.2 2 82.586249841868764 4.4564736121999475 2 91.013687905492901 1.2 2 96.413813692293473 6.9832266044354663 2 </DataArray>
</Points>
<Cells>
<DataArray Name="connectivity" format="ascii" type="Int32">0</DataArray>
<DataArray Name="offsets" format="ascii" type="Int32">0</DataArray>
<DataArray Name="types" format="ascii" type="UInt8">1</DataArray>
</Cells>
<PointData>
<DataArray Name="Points" NumberOfComponents="3" format="ascii" type="Float32">8.1180120195521344 1.2 2 30.094785224088064 1.2 2 77.102570874379182 2.828238881516532 2 79.549062651212822 2.9754983323735411 2 88.235108900584876 3.9736022185872031 2 2.627886439664096 1.2 2 34.564998234964946 2.7142032009683117 2 68.998137389510717 1.2 2 84.648658534298434 1.2 2 87.024599660627374 10.493067200018089 2 5.1485485768525034 8.4032504014738265 2 31.518779035658493 9.4476694835142379 2 75.372331387867504 9.2124813824934986 2 79.116970085455321 6.8723860036341744 2 91.629069994676939 4.8099771558011284 2 3.977656521398707 6.488508870501029 2 34.800579431926842 5.0662332735900781 2 70.316261711553366 1.2 2 80.94071588955903 7.7656219659591894 2 87.033948700085958 1.2 2 4.8370658009232121 2.6647504167346052 2 28.581406759006743 2.5888109548132308 2 75.022965719398329 3.540632665006834 2 78.060196879733809 4.7523986389278354 2 88.967949068003307 9.1683464651602922 2 3.0450526548824288 2.6528557578023726 2 37.954351021674867 3.5099730744608983 2 71.605765672332595 5.3613695829967192 2 85.622440702898274 2.956458409896848 2 84.961881689485978 9.4287376978987556 2 6.8514708029392253 4.9384156732764399 2 27.658798000768265 9.0077772443863875 2 71.749124484864296 9.8653102462687325 2 75.949097953531691 5.5253596927746189 2 93.589275372668254 1.2 2 95.040912817692032 1.2 2 2.7039902440293413 5.5792978967027498 2 35.623069830742118 8.694387750901976 2 73.068043221253504 4.3781594054721484 2 80.899510313428664 2.8610638387470311 2 91.061524311136566 2.8928318689721206 2 10.767036638105704 2.8361741323130154 2 32.392406476458817 2.7683127252811457 2 78.379966103910064 2.9764438716561545 2 78.666523023831218 1.2 2 89.897666514655228 3.6778146286008528 2 1.2 3.9849041246576875 2 10.92718710819706 8.0354564538990889 2 33.993065490917147 1.2 2 68.604099835939522 6.7195990876212095 2 69.535907982167032 3.2821664482934154 2 83.442127115913081 1.2 2 88.447525401965422 7.1907486488528134 2 7.178640796265995 9.4564370450900341 2 34.10355467012927 7.0114050706662905 2 74.256008771089171 7.092912530915104 2 77.237298349017252 10.376615459351907 2 91.2697514215442 8.8412424022306926 2 5.5873742768370471 6.0828399766406749 2 32.842566242652225 5.4492742846317626 2 73.500714964567393 1.2 2 84.176084464678354 4.2303780029318956 2 89.009873308031203 2.4326715270569901 2 7.1625208530535076 2.627466621073264 2 26.216566627218366 5.0007568828910154 2 30.019878478794411 7.901461884550617 2 74.666890715905268 1.2 2 80.67172065863771 5.864025982489764 2 93.209981037968504 8.2486172074962933 2 4.6063895454288737 4.5000678828992315 2 36.391988834006142 1.2 2 69.859838029835615 8.6872576270729738 2 84.970412319148281 7.3737450655557586 2 83.780462607105633 6.1405248021774179 2 8.8148987371392504 7.8265263486068042 2 26.444223864249611 7.1700562925624709 2 73.40043016650985 8.6509604008413508 2 77.343423017773404 8.2297720250891118 2 93.401807835316362 5.0510440462989559 2 94.683930015472555 4.0876560476661705 2 1.2 7.6047024176947646 2 36.767421210056682 4.9959407859011273 2 72.521019552954073 2.1571989316628288 2 82.501478742440099 2.8110822197425205 2 89.811400027849942 1.2 2 95.74009788973207 5.2869747321728084 2 9.5505696703061655 1.2 2 30.516519910150937 2.6412792785543044 2 76.249757503223449 1.2 2 81.108426761425974 4.3060204384199432 2 88.332361101453671 5.4446262062201232 2 1.2 2.5776606386875849 2 32.827825230608944 1.2 2 68.432832613715206 2.6307663619382384 2 85.806938044965037 1.2 2 86.829181521114506 8.371014778640367 2 6.9217540986147865 7.2532010827589 2 11.317465802770474 4.712255536128632 2 33.569880073806786 9.1248511547272155 2 73.826086886337293 10.842865318788901 2 79.138747706308067 8.932248416796849 2 92.14392574475967 6.6200497648967129 2 3.078061316346421 8.1049684831602615 2 33.523663028240762 3.7754109922537569 2 66.191787066813163 1.2 2 70.634430057588801 2.579436598851625 2 81.198038297461594 9.722525947783657 2 88.308068727016391 1.2 2 5.4275722468647407 1.2 2 29.756073549633857 4.0462891394631066 2 74.443047097855569 5.1874859855358508 2 79.433905519591363 4.7864387814122624 2 90.435400343920008 10.865895715212849 2 4.0246871472869294 1.2 2 36.926387838982201 2.6585356683934647 2 71.679312005849297 3.5305087913339217 2 86.533630593905784 4.3735429632143434 2 83.150037455342328 10.543189638199449 2 98.8 2.5295864748316141 2 8.2232520157226929 3.7707531431615893 2 29.488424526129901 10.151760974629592 2 69.968279524116767 11.022055892145888 2 76.526645018592475 4.1752067130421278 2 92.261926282097676 1.2 2 95.59679096420281 2.4597077271277366 2 1.2 5.7236332297821217 2 37.536430183098211 9.6673697283360482 2 72.806985964711728 6.3424811946057877 2 81.044941539351555 1.2 2 92.44440059791647 3.1460962649973392 2 9.2336089061802209 2.63921714523021 2 31.506218586784296 1.2 2 77.489038282489133 1.2 2 79.845002803897358 1.2 2 90.064165735623249 5.4317793646222912 2 1.2 1.2 2 12.407734770776633 9.5878671746866289 2 35.284446274587665 1.2 2 68.756048252110489 4.9934126490878556 2 70.212420378334869 4.7214877988827748 2 82.259177936383679 1.2 2 86.654769510342504 6.3531767582046381 2 9.5263117204030507 9.8659559192627171 2 12.955606242107535 2.2628421869099298 2 32.132248505170637 7.3842277169881374 2 75.816356856852238 7.2071192052807271 2 79.398107388203826 11.082316959725514 2 90.244383634911983 7.1957509448397285 2 6.0321741999925509 3.4688659011647958 2 31.501339834931507 4.2155394786998919 2 66.515157058254601 3.1709017102506905 2 73.687187530567073 3.0121022857560549 2 84.070472886770148 2.7695529230885261 2 87.184927107857405 2.7635958536913869 2 6.6615513427633859 1.2 2 27.730003825161493 5.355828288478401 2 30.850652370305465 5.959999238244948 2 39.996559984074231 4.7989696760461609 2 75.499831504526455 2.2917203392708596 2 82.256819879408397 6.2840324655547413 2 95.147201044488398 8.639998592079202 2 3.0310496514338663 3.9387733003382173 2 35.73511492709396 3.4786868619217546 2 39.223123876038898 3.2515542668767692 2 70.287462385363696 6.6291546934014267 2 85.308861829849278 5.208078251718673 2 83.008527655066942 8.2607388809459881 2 8.3899484882668922 5.8304885727867601 2 25.253081968563553 2.2677593988714326 2 28.420939337696186 7.0345716427024287 2 71.691554449079362 7.7050549723936514 2 77.585660676541224 6.2510568403348206 2 93.762797745616055 2.8179128682327215 2 96.636314372132588 3.4633178225810783 2 1.7037696062025456 9.8032430095816743 2 26.91136285425916 2.3263206821469202 2 35.996036930582719 6.6727442370251318 2 71.755326756725381 1.2 2 82.586249841868764 4.4564736121999475 2 91.013687905492901 1.2 2 96.413813692293473 6.9832266044354663 2 </DataArray>
<DataArray Name="forces" NumberOfComponents="3" format="ascii" type="Float32">0.0014181137789837095 -1.0277418502193676 0.0 0.0074947687676977237 -1.1010210124613795 0.0 0.0081871398805107853 0.25760114462161093 0.0 0.050202175256304729 0.2385346758259177 0.0 0.043873944166241241 0.22116275714068334 0.0 0.024199904594150112 -1.1474942775166859 0.0 0.0046905529631111609 0.22459165142958326 0.0 0.009035119465760133 -1.3497409276768797 0.0 0.0087433186950734432 -1.0301691205895218 0.0 0.054147937334474289 0.33359189802153355 0.0 0.037642221415747246 0.31959660946612461 0.0 0.018334299288206221 0.38467762865556077 0.0 0.021092329675924004 0.30962790914958149 0.0 0.00079969833712467686 0.29131391479312441 0.0 0.069028513245666501 0.20913624244253481 0.0 0.053786639805801117 0.35388886616633458 0.0 -0.027163212673543075 0.23849525551661543 0.0 -0.0086469978848968676 -1.1517521238709514 0.0 0.011763984062742872 0.32719121323072808 0.0 0.013272747201407434 -0.98295200883391753 0.0 -0.041450776466052497 0.24696025611655953 0.0 -0.0092480866137781836 0.22823347393233206 0.0 0.0040618000845645263 0.23055128823730731 0.0 0.02058412415846847 0.24763612973396665 0.0 0.035700554854954464 0.29343576129312265 0.0 -0.018818423982214984 0.25556093231171251 0.0 -0.021816543951960421 0.31674055839574222 0.0 -0.013650798737293291 0.29730738012050062 0.0 0.029112056473237686 0.24990996400931204 0.0 0.046564323338489907 0.35758841509358075 0.0 -0.030446396935439157 0.24251148566310687 0.0 -0.06029709907138113 0.2955928409041001 0.0 0.0086621493747230591 0.34547781685941958 0.0 -0.01816510985466957 0.26648350566655599 0.0 0.090594327949296047 -0.91254551268537321 0.0 0.077895271743961131 -1.2054492362560612 0.0 0.022968881423661769 0.40016239743615784 0.0 0.097320349767591074 0.26475876995599867 0.0 -0.045710883221786458 0.26281963514482398 0.0 0.060623321547462403 0.24474095643283167 0.0 0.031609109900736773 0.15077088377789372 0.0 -0.0091559088476242112 0.24456794634594195 0.0 -0.028212834418819832 0.23412660147610165 0.0 0.016606899917807005 0.21104869560943892 0.0 -0.012911308559069523 -1.0761314639250419 0.0 0.067409619968260309 0.29407877863598186 0.0 -0.81460522999420237 0.26885906999465203 0.0 0.10713886995712257 0.3302163794038937 0.0 -0.039377878729271565 -0.84676057669871974 0.0 0.0041190381848313917 0.29866060351686707 0.0 -0.0082692456952216942 0.22885289464322656 0.0 -0.0032661354597900982 -1.1227380452556364 0.0 0.046225099917044266 0.25505239271697772 0.0 0.039400301951415008 0.29478237754015857 0.0 0.01610902000571679 0.32101684796064944 0.0 0.030357003615222866 0.28946984450122482 0.0 0.028628752713364014 0.3268120351040652 0.0 0.037618636112348919 0.30772121911930828 0.0 0.021960420485804266 0.29373155171245258 0.0 0.0079356521825196813 0.3093140826051769 0.0 -0.0090055123385331948 -1.3579010881292863 0.0 0.023174187376674427 0.23385054198852878 0.0 0.041887117442914741 0.21939152729893313 0.0 0.011107331213150162 0.22309653615611902 0.0 0.053917913860329181 0.20534368524154697 0.0 0.026677725474654523 0.33480781568732726 0.0 -0.0044987403180961616 -1.1744780813384841 0.0 -0.0013677334826501623 0.29989453602788324 0.0 0.061537858205269136 0.37218956981763213 0.0 -0.015385411679925465 0.2812851618739205 0.0 -0.020149447968913929 -0.69903728969983647 0.0 0.003367793304260791 0.33271004309166718 0.0 0.047510493252030633 0.34121562917354331 0.0 0.021267908003799268 0.323254755697441 0.0 0.05884336802478736 0.30564363117354465 0.0 -0.048722426465215851 0.27687785485860505 0.0 0.0099489985741094134 0.31191556180579105 0.0 0.034254555035590752 0.30825854523365126 0.0 0.074176203347908087 0.31168519694293473 0.0 0.0012984217958065813 0.16494732586175506 0.0 -0.47890867061952475 0.26374782345078507 0.0 -0.0091253485695326764 0.23276360927781325 0.0 0.021929673910210723 0.20617964362924202 0.0 0.013019980866433252 0.24525296005689901 0.0 0.031710668060494829 -1.0135119045293406 0.0 -0.023004250022576223 0.26143279933445407 0.0 -0.011317394107316053 -1.2007496469337549 0.0 -0.022136578349757352 0.25580777601104526 0.0 0.0049960296314652819 -1.3882631210258098 0.0 0.035201545648992139 0.29549556127083071 0.0 0.021337886455105259 0.23207364879272782 0.0 -0.9496987222516442 0.22497736604177188 0.0 -0.022359862623505533 -0.81200157296175246 0.0 -0.003994667515931416 0.22861741927816509 0.0 0.0050615420781277565 -0.91354985519038667 0.0 0.055039056414838174 0.31162113654471646 0.0 0.032457722994384319 0.28566315850966606 0.0 -0.024923275318409488 0.23195622186357212 0.0 0.060828828866709914 0.3367543479462195 0.0 0.02059300345263796 0.32157845381948302 0.0 0.030855094691800689 0.34269579956576135 0.0 0.048043737887859539 0.29219524224321697 0.0 0.003395453302401652 0.3874037363515439 0.0 -0.0085186529666674837 0.22698248175301039 0.0 0.012774344130467283 -1.0199543889866889 0.0 0.0051170002543817206 0.24110081651814128 0.0 0.034913997182392846 0.34311088196717776 0.0 0.021251356216910544 -1.2422615554944831 0.0 0.0070866024333464672 -0.91371858003987483 0.0 -0.0093581006690977575 0.27091938193191234 0.0 -0.030494615333113206 0.25487617030490339 0.0 0.014102519713186483 0.24397419209592372 0.0 0.022247654464035857 0.31400835205642613 0.0 0.017190526130789641 -1.1754527488863675 0.0 0.022728495959625821 0.16409086793323691 0.0 -0.0011268621829020591 0.22249637352903437 0.0 0.0097503039137041281 0.28004929085736296 0.0 0.034826530958140908 0.36855658561056981 0.0 0.95270106043426572 0.211061360946842 0.0 -0.019339265212027112 0.27792642229089271 0.0 -0.054210598637632119 0.29727850690458907 0.0 -0.0070515825403997057 0.34701374169231924 0.0 -0.0029481966949297389 0.26620489811559861 0.0 0.096756854334536957 -0.85236311957930322 0.0 0.070028192982930504 0.21839569502928702 0.0 -0.88454630646230803 0.23031121917030917 0.0 0.047407547104618586 0.38883108074451306 0.0 -0.0051697961418485372 0.31949118668956411 0.0 -0.0060084919538878623 -0.9639635247526499 0.0 0.056782632216882734 0.2665968298738472 0.0 0.0066007689899664213 0.25352682541378058 0.0 -0.015439683373765778 -1.0628481023034522 0.0 -0.0085222043577556361 -1.1440074182747066 0.0 -0.0059908604735880999 -1.0394840281042148 0.0 0.050444915829909329 0.29952753281672595 0.0 -1.0165227132787027 -1.0570573162371302 0.0 0.079339931594375745 0.40478894283018402 0.0 -0.042999301781510735 -0.86776514412104366 0.0 -0.0082127035518867464 0.25993971122503712 0.0 -3.7209320122237599e-05 0.24820314110582437 0.0 0.0013269968594111798 -0.96385636685527187 0.0 0.029868754308379319 0.28626580549479624 0.0 0.03663696884766629 0.30638780610897898 0.0 0.0076943665833522634 0.22680540547911177 0.0 0.018364577555695261 0.35191701685874593 0.0 0.041314386844642226 0.30677711084791909 0.0 0.034535764566974853 0.36201390750627904 0.0 0.053822734205503375 0.31268621042824596 0.0 -0.013956954428681256 0.19327283013643348 0.0 0.0038957567595458154 0.29581332059552101 0.0 -0.016278634474808706 0.23224121504102335 0.0 0.0093773799187313878 0.26085571515741696 0.0 0.004341065902061958 0.21345903349753409 0.0 0.020418045904774529 0.22715307257928585 0.0 -0.011737057144125174 -0.92314426582825804 0.0 0.0079908847668560545 0.33271317189430816 0.0 -0.0001867044862929601 0.3162773776522666 0.0 -0.033466419788705792 0.25301689896424856 0.0 0.0093410571796655462 0.2145164602217855 0.0 0.0061819194017496831 0.33038812962496222 0.0 0.11944632690014256 0.3441008360276534 0.0 -0.048277254589954285 0.32284173776654768 0.0 0.014813903711059674 0.22073925463848904 0.0 -0.050697003687240949 0.2289063724477032 0.0 -0.010457217530873808 0.29049477070481822 0.0 -0.022998154253220771 0.30119014633775737 0.0 0.037169799372278461 0.34689994630305354 0.0 -0.0037457870431850948 0.28866087477907648 0.0 -0.012645748091255404 0.22324480916772821 0.0 0.00035196008512700105 0.33265840885998144 0.0 -0.016327784996605255 0.3281423579403896 0.0 0.0051468152309257498 0.25612919156309755 0.0 0.026416303244408912 0.2188701183974584 0.0 0.018609746413121298 0.26449819409256958 0.0 -0.1012905483158632 0.31189293551179786 0.0 -0.015061347047981899 0.21831825965374654 0.0 -0.027210798225895783 0.21185574629281811 0.0 -0.034788736700201911 -1.4744074631144035 0.0 0.039467367205171036 0.30372723456498729 0.0 0.068513321410241135 -0.72661500516073807 0.0 0.02466027260485118 0.25481966760377855 0.0 </DataArray>
<DataArray Name="radii" format="ascii" type="Float32">1.2 1.2 1.2 1.2 1.2 1.2 1.2 1.2 1.2 1.2 1.2 1.2 1.2 1.2 1.2 1.2 1.2 1.2 1.2 1.2 1.2 1.2 1.2 1.2 1.2 1.2 1.2 1.2 1.2 1.2 1.2 1.2 1.2 1.2 1.2 1.2 1.2 1.2 1.2 1.2 1.2 1.2 1.2 1.2 1.2 1.2 1.2 1.2 1.2 1.2 1.2 1.2 1.2 1.2 1.2 1.2 1.2 1.2 1.2 1.2 1.2 1.2 1.2 1.2 1.2 1.2 1.2 1.2 1.2 1.2 1.2 1.2 1.2 1.2 1.2 1.2 1.2 1.2 1.2 1.2 1.2 1.2 1.2 1.2 1.2 1.2 1.2 1.2 1.2 1.2 1.2 1.2 1.2 1.2 1.2 1.2 1.2 1.2 1.2 1.2 1.2 1.2 1.2 1.2 1.2 1.2 1.2 1.2 1.2 1.2 1.2 1.2 1.2 1.2 1.2 1.2 1.2 1.2 1.2 1.2 1.2 1.2 1.2 1.2 1.2 1.2 1.2 1.2 1.2 1.2 1.2 1.2 1.2 1.2 1.2 1.2 1.2 1.2 1.2 1.2 1.2 1.2 1.2 1.2 1.2 1.2 1.2 1.2 1.2 1.2 1.2 1.2 1.2 1.2 1.2 1.2 1.2 1.2 1.2 1.2 1.2 1.2 1.2 1.2 1.2 1.2 1.2 1.2 1.2 1.2 1.2 1.2 1.2 1.2 1.2 1.2 1.2 1.2 1.2 1.2 1.2 </DataArray>
</PointData>
<CellData/>
</Piece>
</UnstructuredGrid>
</VTKFile>
