<?xml version="1.0" ?>
<VTKFile byte_order="LittleEndian" type="UnstructuredGrid" version="0.1">
<UnstructuredGrid>
<Piece NumberOfCells="0" NumberOfPoints="31">
<Points>
<DataArray NumberOfComponents="3" format="ascii" type="Float32">20.831950224782176 1.2 2 25.437039753933981 1.9777162859556172 2 38.619749344101585 2.424604596658813 2 45.456703523376376 1.4588519468795149 2 53.72425816306761 1.8044080516848613 2 59.365099438343847 1.2 2 14.849239402074012 3.328221858881133 2 19.744219487369389 5.7991088528524788 2 43.110831071541547 1.2 2 47.245860080320128 3.534007491770963 2 51.400769342759894 1.2 2 61.203423280657091 2.7364896688859273 2 64.233378582059686 3.2872432784743313 2 97.149165942168878 2.8652753642075841 2 13.544508424492495 1.2 2 18.465992453989529 1.6719817647990463 2 23.166357427538653 1.2 2 47.819037547343811 1.2 2 55.667507053928595 3.2140064823937187 2 56.967026985475272 1.2 2 67.783345517752167 1.2 2 93.09367440311442 1.2 2 15.949971697015593 1.2 2 20.323802342127781 3.5042538049710417 2 27.722188260662541 1.3582988167549497 2 40.968141007086423 2.1690715748959311 2 49.507355935562188 4.3371865787481134 2 51.778648091205945 3.5639277980732924 2 63.026999895959754 1.2 2 65.40621676438802 1.2 2 95.453924721479865 1.2 2 </DataArray>
</Points>
<Cells>
<DataArray Name="connectivity" format="ascii" type="Int32">0</DataArray>
<DataArray Name="offsets" format="ascii" type="Int32">0</DataArray>
<DataArray Name="types" format="ascii" type="UInt8">1</DataArray>
</Cells>
<PointData>
<DataArray Name="Points" NumberOfComponents="3" format="ascii" type="Float32">20.831950224782176 1.2 2 25.437039753933981 1.9777162859556172 2 38.619749344101585 2.424604596658813 2 45.456703523376376 1.4588519468795149 2 53.72425816306761 1.8044080516848613 2 59.365099438343847 1.2 2 14.849239402074012 3.328221858881133 2 19.744219487369389 5.7991088528524788 2 43.110831071541547 1.2 2 47.245860080320128 3.534007491770963 2 51.400769342759894 1.2 2 61.203423280657091 2.7364896688859273 2 64.233378582059686 3.2872432784743313 2 97.149165942168878 2.8652753642075841 2 13.544508424492495 1.2 2 18.465992453989529 1.6719817647990463 2 23.166357427538653 1.2 2 47.819037547343811 1.2 2 55.667507053928595 3.2140064823937187 2 56.967026985475272 1.2 2 67.783345517752167 1.2 2 93.09367440311442 1.2 2 15.949971697015593 1.2 2 20.323802342127781 3.5042538049710417 2 27.722188260662541 1.3582988167549497 2 40.968141007086423 2.1690715748959311 2 49.507355935562188 4.3371865787481134 2 51.778648091205945 3.5639277980732924 2 63.026999895959754 1.2 2 65.40621676438802 1.2 2 95.453924721479865 1.2 2 </DataArray>
<DataArray Name="forces" NumberOfComponents="3" format="ascii" type="Float32">0.0050571123283672421 -0.085905329849392323 0.0 0.0072145308048736159 0.024458857469359094 0.0 -0.033500360774675879 0.043135017932704238 0.0 0.033524723261041618 0.013169243039134762 0.0 0.00020150063108634883 -9.2338960131364465e-05 0.0 -0.0053658963340924813 -0.022805109921853566 0.0 -0.0068878268434128956 0.013594833237346639 0.0 -0.011325326176096912 0.045215579682284665 0.0 0.01151229541729569 -0.047472362023338252 0.0 -0.0065370666358576298 0.011545328409000915 0.0 -0.004130997730569741 -0.023830477176641812 0.0 -0.018434605201546671 0.060070605875973605 0.0 -0.0054455218961791171 0.0098901317406330583 0.0 0.037367212788487425 0.035915703549382241 0.0 0.0041782864792882686 -0.0004123207698694903 0.0 -0.012777378103551729 0.0026757333945132324 0.0 -0.018909789743017123 -0.015195008660396575 0.0 0.045031817315136578 -0.017610948964188418 0.0 -0.0046605888244140511 0.0077538519992579108 0.0 -0.018348557419319581 -0.0072157905294793767 0.0 0.033938623238797441 -0.036973607358227592 0.0 0.015805249872745661 -0.044340574022691336 0.0 0.0068878268434128956 -0.013594833237346639 0.0 -0.0066493189268747206 0.038014016772594431 0.0 0.0029945202115718994 -0.0064804128919347028 0.0 -0.011471836083515083 0.031236584797177898 0.0 -0.00097428610987587965 0.0031096643306954318 0.0 0.0084125969703909807 0.021969989568324248 0.0 -0.022135411717944024 -0.037567588602219058 0.0 0.0069938106688538851 -0.0098901317406330583 0.0 0.035998759103281763 -0.035915703549382241 0.0 </DataArray>
<DataArray Name="radii" format="ascii" type="Float32">1.2 1.2 1.2 1.2 1.2 1.2 1.2 1.2 1.2 1.2 1.2 1.2 1.2 1.2 1.2 1.2 1.2 1.2 1.2 1.2 1.2 1.2 1.2 1.2 1.2 1.2 1.2 1.2 1.2 1.2 1.2 </DataArray>
</PointData>
<CellData/>
</Piece>
</UnstructuredGrid>
</VTKFile>
