<?xml version="1.0" ?>
<VTKFile byte_order="LittleEndian" type="UnstructuredGrid" version="0.1">
<UnstructuredGrid>
<Piece NumberOfCells="0" NumberOfPoints="120">
<Points>
<DataArray NumberOfComponents="3" format="ascii" type="Float32">43.788524124497535 1.4 2 52.17729955604991 5.068376935341699 2 61.289038526795053 4.147237988610204 2 16.762044758612095 7.3385447136679929 2 42.886668527434502 2.8656683844880932 2 43.078749735432545 8.4383619317272913 2 52.259313386642866 2.9463602874841772 2 63.219957103280557 8.7315613582190803 2 15.175840707787412 4.4667769263964869 2 45.82328745530868 4.7123265523355125 2 57.587181942042278 8.0926543080167725 2 57.684814504264018 1.4 2 14.848670711257105 6.5723051633492897 2 22.928657522631227 10.589928020138887 2 45.122003908451994 9.0374110785926778 2 54.05848168243358 10.636422270858349 2 21.219829128490751 2.2136147268959716 2 53.762599622428169 1.4 2 61.56001198319489 1.4 2 19.522800168810431 10.760384985623377 2 44.259075382055471 2.9388408080017228 2 48.841118188038536 2.6020251559870804 2 58.053334974775574 10.490816374347416 2 65.052503467583094 7.9265496558262249 2 16.133557860999439 3.0402615929877124 2 47.149320987531226 5.4517806381608196 2 57.911776835868672 5.6206700557665288 2 58.936079795779705 6.7138974979990671 2 22.22629670655563 4.1861310200010093 2 51.19209920501099 3.6723033139365491 2 48.687291334944433 9.1424097428436664 2 65.55199499058341 5.6591319615924274 2 45.060692061802989 1.4 2 54.524176678965027 5.8542688842762658 2 63.87888824268574 4.9237999483040733 2 18.754417646631911 4.7162382321736072 2 42.578835730355031 6.381009148370234 2 41.304995920940158 10.066363037376616 2 51.315580231418764 1.4 2 62.398261571606774 11.008735867519837 2 47.650989231262294 1.4 2 56.092266996122547 9.6141536413710931 2 56.287181678636919 1.4 2 46.795175442917483 10.93642913657116 2 52.528884813107886 8.7489610927524701 2 61.05261259206889 2.8323925168760029 2 20.150818262507688 3.428222341182293 2 55.838389803820448 4.5114705622549209 2 60.274023299933148 1.4 2 17.159894369092125 9.6639240542760358 2 46.015553640634529 6.7736854032398011 2 50.182085787631692 1.4 2 61.315327890094437 8.5916187298972737 2 66.560920090580055 9.1633300056161282 2 17.793309830757785 1.4 2 50.689196112249071 5.1657602804961718 2 57.014371712386563 3.8088827624401125 2 58.412110362944368 2.8820321378926694 2 20.778400319970078 6.6010775527920691 2 51.635095564978549 6.801261785445571 2 50.708607842663056 9.1176519299311884 2 42.466406655489941 1.4 2 53.369044924021011 4.5530575582967705 2 59.986107490726177 4.8082255687470212 2 18.663003190856895 6.2361599689422906 2 43.803419610389234 10.930051191294146 2 54.621180354194379 3.8357572164042888 2 63.869118605595531 6.6132696857351423 2 16.705064414621383 5.3238900148110009 2 47.497294252019735 3.9075958751219715 2 59.503691516628436 8.5259202548233013 2 56.878523875829458 2.437077796370779 2 22.971030928250503 8.0731189462824151 2 46.97971681767072 8.393584389921708 2 56.099183408185539 12.118175072288249 2 20.454191352546147 1.4 2 53.495710212453346 2.7471952060075955 2 62.596905921466067 2.5827651284803204 2 18.959471372161989 8.2148024998619409 2 44.546559168018668 4.6500670096643182 2 46.901196794569451 2.7417565179806838 2 60.178979272848814 10.83300533676147 2 17.484110195914827 3.5871565436575721 2 49.307261731027864 5.320396430742691 2 56.435185642504052 5.9054203319918619 2 60.483130582060504 6.3148383785850442 2 16.547413042813783 1.4 2 50.310370693419358 2.8803586405780055 2 48.258570474775851 6.7491617901616774 2 22.196568544914452 1.4 2 46.381092852496224 1.4 2 53.3733081029416 6.7482072944709826 2 62.404707397012707 4.9038098487636157 2 20.685287937485409 4.7893568553055896 2 43.069883063951494 4.9824503069132717 2 41.02381989696444 7.5377817556844189 2 52.498808365565225 1.4 2 64.720917682022801 10.565032598531074 2 45.566870415195339 2.9555344052265755 2 55.94743899676898 7.3019647671837502 2 55.003566604230194 1.4 2 22.705273657260463 6.0159143687393088 2 49.40399191240963 11.380437867595459 2 54.445808249542452 8.3025480933222795 2 62.893601331987881 1.4 2 18.694531449884458 2.7328545860160158 2 55.217877461865804 2.5932851732731601 2 58.959030935661382 1.4 2 15.113441919455447 11.163829012577608 2 44.527197941528343 6.7524328032837921 2 48.868495466077675 1.4 2 62.005086332057601 6.6606022742159485 2 19.114712782285149 1.4 2 48.939717458504099 3.9693668828062645 2 58.60935715716856 4.2781626960341725 2 59.701082250991526 2.8299102284250304 2 21.061348666249952 8.8531893465358724 2 49.966676732516419 7.2349743378800353 2 51.875086109407029 11.234175394347249 2 63.563995023383406 3.3739008710705582 2 </DataArray>
</Points>
<Cells>
<DataArray Name="connectivity" format="ascii" type="Int32">0</DataArray>
<DataArray Name="offsets" format="ascii" type="Int32">0</DataArray>
<DataArray Name="types" format="ascii" type="UInt8">1</DataArray>
</Cells>
<PointData>
<DataArray Name="Points" NumberOfComponents="3" format="ascii" type="Float32">43.788524124497535 1.4 2 52.17729955604991 5.068376935341699 2 61.289038526795053 4.147237988610204 2 16.762044758612095 7.3385447136679929 2 42.886668527434502 2.8656683844880932 2 43.078749735432545 8.4383619317272913 2 52.259313386642866 2.9463602874841772 2 63.219957103280557 8.7315613582190803 2 15.175840707787412 4.4667769263964869 2 45.82328745530868 4.7123265523355125 2 57.587181942042278 8.0926543080167725 2 57.684814504264018 1.4 2 14.848670711257105 6.5723051633492897 2 22.928657522631227 10.589928020138887 2 45.122003908451994 9.0374110785926778 2 54.05848168243358 10.636422270858349 2 21.219829128490751 2.2136147268959716 2 53.762599622428169 1.4 2 61.56001198319489 1.4 2 19.522800168810431 10.760384985623377 2 44.259075382055471 2.9388408080017228 2 48.841118188038536 2.6020251559870804 2 58.053334974775574 10.490816374347416 2 65.052503467583094 7.9265496558262249 2 16.133557860999439 3.0402615929877124 2 47.149320987531226 5.4517806381608196 2 57.911776835868672 5.6206700557665288 2 58.936079795779705 6.7138974979990671 2 22.22629670655563 4.1861310200010093 2 51.19209920501099 3.6723033139365491 2 48.687291334944433 9.1424097428436664 2 65.55199499058341 5.6591319615924274 2 45.060692061802989 1.4 2 54.524176678965027 5.8542688842762658 2 63.87888824268574 4.9237999483040733 2 18.754417646631911 4.7162382321736072 2 42.578835730355031 6.381009148370234 2 41.304995920940158 10.066363037376616 2 51.315580231418764 1.4 2 62.398261571606774 11.008735867519837 2 47.650989231262294 1.4 2 56.092266996122547 9.6141536413710931 2 56.287181678636919 1.4 2 46.795175442917483 10.93642913657116 2 52.528884813107886 8.7489610927524701 2 61.05261259206889 2.8323925168760029 2 20.150818262507688 3.428222341182293 2 55.838389803820448 4.5114705622549209 2 60.274023299933148 1.4 2 17.159894369092125 9.6639240542760358 2 46.015553640634529 6.7736854032398011 2 50.182085787631692 1.4 2 61.315327890094437 8.5916187298972737 2 66.560920090580055 9.1633300056161282 2 17.793309830757785 1.4 2 50.689196112249071 5.1657602804961718 2 57.014371712386563 3.8088827624401125 2 58.412110362944368 2.8820321378926694 2 20.778400319970078 6.6010775527920691 2 51.635095564978549 6.801261785445571 2 50.708607842663056 9.1176519299311884 2 42.466406655489941 1.4 2 53.369044924021011 4.5530575582967705 2 59.986107490726177 4.8082255687470212 2 18.663003190856895 6.2361599689422906 2 43.803419610389234 10.930051191294146 2 54.621180354194379 3.8357572164042888 2 63.869118605595531 6.6132696857351423 2 16.705064414621383 5.3238900148110009 2 47.497294252019735 3.9075958751219715 2 59.503691516628436 8.5259202548233013 2 56.878523875829458 2.437077796370779 2 22.971030928250503 8.0731189462824151 2 46.97971681767072 8.393584389921708 2 56.099183408185539 12.118175072288249 2 20.454191352546147 1.4 2 53.495710212453346 2.7471952060075955 2 62.596905921466067 2.5827651284803204 2 18.959471372161989 8.2148024998619409 2 44.546559168018668 4.6500670096643182 2 46.901196794569451 2.7417565179806838 2 60.178979272848814 10.83300533676147 2 17.484110195914827 3.5871565436575721 2 49.307261731027864 5.320396430742691 2 56.435185642504052 5.9054203319918619 2 60.483130582060504 6.3148383785850442 2 16.547413042813783 1.4 2 50.310370693419358 2.8803586405780055 2 48.258570474775851 6.7491617901616774 2 22.196568544914452 1.4 2 46.381092852496224 1.4 2 53.3733081029416 6.7482072944709826 2 62.404707397012707 4.9038098487636157 2 20.685287937485409 4.7893568553055896 2 43.069883063951494 4.9824503069132717 2 41.02381989696444 7.5377817556844189 2 52.498808365565225 1.4 2 64.720917682022801 10.565032598531074 2 45.566870415195339 2.9555344052265755 2 55.94743899676898 7.3019647671837502 2 55.003566604230194 1.4 2 22.705273657260463 6.0159143687393088 2 49.40399191240963 11.380437867595459 2 54.445808249542452 8.3025480933222795 2 62.893601331987881 1.4 2 18.694531449884458 2.7328545860160158 2 55.217877461865804 2.5932851732731601 2 58.959030935661382 1.4 2 15.113441919455447 11.163829012577608 2 44.527197941528343 6.7524328032837921 2 48.868495466077675 1.4 2 62.005086332057601 6.6606022742159485 2 19.114712782285149 1.4 2 48.939717458504099 3.9693668828062645 2 58.60935715716856 4.2781626960341725 2 59.701082250991526 2.8299102284250304 2 21.061348666249952 8.8531893465358724 2 49.966676732516419 7.2349743378800353 2 51.875086109407029 11.234175394347249 2 63.563995023383406 3.3739008710705582 2 </DataArray>
<DataArray Name="forces" NumberOfComponents="3" format="ascii" type="Float32">-0.10000918706280948 -2.3474274059450955 0.0 -0.032149116020617097 0.57536962326169216 0.0 0.095255410005036067 0.56996215505779424 0.0 0.0022653212147047963 0.55240832888998925 0.0 -0.05980709411256839 0.6289708268557247 0.0 -0.11901084379352206 0.673754638738008 0.0 -0.053080127983882675 0.53993549916302919 0.0 0.043181028322427928 0.59837347506468475 0.0 -0.11553443115963261 0.4439863854892695 0.0 -0.1088772270525761 0.63184637513314745 0.0 -0.028436645064909616 0.63248057554119208 0.0 0.058638879679678291 -2.70620577722041 0.0 -0.083929721686942793 0.53624229866223272 0.0 0.009828858772383875 0.56103173451941735 0.0 -0.065759448214425753 0.62139035259152309 0.0 -0.012638054226756124 0.64738782333641443 0.0 0.014683483445628309 0.43356543649538404 0.0 -0.00096220509449129743 -2.6550064458367535 0.0 0.082734827828074176 -2.4357977046459416 0.0 -0.00087876988851315341 0.54369355603985081 0.0 -0.069397766069865696 0.63028502717484447 0.0 -0.062310208828927877 0.59501812154633926 0.0 0.0091865204306257331 0.63911057933161863 0.0 0.025124730090300779 0.55553957302827084 0.0 -0.096726542467704596 0.59676580949660707 0.0 -0.09121430159838273 0.61923467675310429 0.0 0.066802425905641227 0.59511790400834941 0.0 -0.026487247598953233 0.70879223578035488 0.0 0.054319075559498969 0.55838147108920533 0.0 -0.046277307123227307 0.6179355814525328 0.0 -0.13503331217207698 0.60735403909761354 0.0 0.024166706437387275 0.57962473413531757 0.0 -0.10055195630943031 -2.4604969792157889 0.0 -0.027646509302798019 0.58636603760179629 0.0 0.065782636710498193 0.62828704190460016 0.0 0.0060693699870631584 0.63688259995954188 0.0 -0.11665751463160667 0.60733860072666934 0.0 -0.10308797207234588 0.68167596699426347 0.0 -0.026296577806912635 -2.3488371155252263 0.0 0.078067576187438315 0.62317946960613813 0.0 -0.098147215343930894 -2.2995210069356133 0.0 -0.021765897641839449 0.59330245903689827 0.0 0.012460354453215694 -2.6769841338124278 0.0 -0.13423281158743733 0.55979259069205745 0.0 -0.031663390637926184 0.66763484335032264 0.0 -0.030973688373272468 0.61526772151935849 0.0 0.016700330427216803 0.5686353290454591 0.0 0.08406231525327601 0.53136042180654608 0.0 0.070109750320169362 -2.5482890599216983 0.0 -0.025546990039195111 0.59781873769366056 0.0 -0.076570422395487059 0.60715865808924729 0.0 -0.060388709080506864 -2.3867420186037549 0.0 0.044002459268221772 0.63471677645132674 0.0 0.023354069477115311 0.60579703951780917 0.0 0.046738464738346641 -1.9068567530678913 0.0 -0.0082136955216938201 0.66463065577260105 0.0 0.094528757300311073 0.59079962917343143 0.0 -0.039127504994381113 0.70644750241077858 0.0 0.045275479371490665 0.48540719742829896 0.0 0.018022135048946675 0.62932247867654056 0.0 -0.06555084315521037 0.68485969250773437 0.0 -0.10320074245168054 -2.2862610992743457 0.0 -0.02742565223084821 0.60446483938937856 0.0 0.1230298687781044 0.64179730941844526 0.0 0.0071334290737529171 0.52289907556010662 0.0 -0.077520041912207543 0.65435636659926766 0.0 0.030287811888042526 0.65498983180408155 0.0 0.014813888555843091 0.60286623043531917 0.0 -0.11701199430514558 0.58054485100444242 0.0 -0.035703088330517829 0.63380634584463058 0.0 0.044867114895529164 0.69047099098380404 0.0 0.013783529065634181 0.54123799327733435 0.0 -0.017612467567189927 0.54387951574416005 0.0 -0.023608162717506875 0.45383102233224693 0.0 0.02989339286449676 0.62563308478690827 0.0 -0.058737146812941399 -2.3511335256462269 0.0 0.016697662639507005 0.72057607992699213 0.0 0.032409991373582026 0.65157708679913517 0.0 0.0094798427708725486 0.52468509518691153 0.0 -0.11576022395423229 0.70643464208070639 0.0 -0.10309347386675988 0.62884318893583036 0.0 0.048358684073648947 0.69489972848087112 0.0 -0.070908070515969895 0.6370474748000412 0.0 0.044665635768914247 0.58123371072113583 0.0 0.037460056218692514 0.54734463200995731 0.0 0.008946035759380612 0.6344191798298533 0.0 0.0735521529964141 -1.6561047483167868 0.0 -0.038239070355058025 0.61422633952662475 0.0 0.048868360448045878 0.44495350882999507 0.0 0.038871428108088246 -1.9504876512068412 0.0 -0.097743879284238278 -2.3804030339127671 0.0 -0.0072261724077258283 0.63290146765099697 0.0 0.064500261186858032 0.61754389449306013 0.0 0.084156269050824128 0.47216126357931387 0.0 -0.1155793030616874 0.61174456729081839 0.0 -0.059140405674807439 0.65027003900145464 0.0 0.010171045136217138 -2.3693262485371998 0.0 0.071875133977470529 0.58140761880130087 0.0 -0.081030671764325324 0.68747940658469031 0.0 0.022621552671651668 0.51616490306760021 0.0 -0.0039046356963666207 -2.7318573354109104 0.0 0.092339188004761819 0.54246103203451479 0.0 -0.13052770539085867 0.63830704302323094 0.0 0.015577943308199615 0.60245344818091662 0.0 0.049599446964514321 -2.4690622442926324 0.0 -0.012046666456804578 0.75804448283351611 0.0 0.001261481823952193 0.61682810401296007 0.0 0.054931501379243741 -2.5608311067320431 0.0 -0.16198664419560227 0.5347082447689202 0.0 -0.13433769477991842 0.68408814025178843 0.0 -0.080442306832110386 -2.5883533146422661 0.0 0.015776845593423044 0.60655113489358059 0.0 -0.026525006348590341 -2.0645668185848982 0.0 -0.084729004757480145 0.61209036885786505 0.0 0.13981078405567327 0.65746801242780095 0.0 -0.039945953128381451 0.57944572353843338 0.0 -0.0017934610937339057 0.53864598900313898 0.0 -0.0080901027262881842 0.71804533825114447 0.0 -0.067046267636600765 0.6820073971532572 0.0 0.050710363549764353 0.61962355156677129 0.0 </DataArray>
<DataArray Name="radii" format="ascii" type="Float32">1.4 1.4 1.4 1.4 1.4 1.4 1.4 1.4 1.4 1.4 1.4 1.4 1.4 1.4 1.4 1.4 1.4 1.4 1.4 1.4 1.4 1.4 1.4 1.4 1.4 1.4 1.4 1.4 1.4 1.4 1.4 1.4 1.4 1.4 1.4 1.4 1.4 1.4 1.4 1.4 1.4 1.4 1.4 1.4 1.4 1.4 1.4 1.4 1.4 1.4 1.4 1.4 1.4 1.4 1.4 1.4 1.4 1.4 1.4 1.4 1.4 1.4 1.4 1.4 1.4 1.4 1.4 1.4 1.4 1.4 1.4 1.4 1.4 1.4 1.4 1.4 1.4 1.4 1.4 1.4 1.4 1.4 1.4 1.4 1.4 1.4 1.4 1.4 1.4 1.4 1.4 1.4 1.4 1.4 1.4 1.4 1.4 1.4 1.4 1.4 1.4 1.4 1.4 1.4 1.4 1.4 1.4 1.4 1.4 1.4 1.4 1.4 1.4 1.4 1.4 1.4 1.4 1.4 1.4 1.4 </DataArray>
</PointData>
<CellData/>
</Piece>
</UnstructuredGrid>
</VTKFile>
