<?xml version="1.0" ?>
<VTKFile byte_order="LittleEndian" type="UnstructuredGrid" version="0.1">
<UnstructuredGrid>
<Piece NumberOfCells="0" NumberOfPoints="20">
<Points>
<DataArray NumberOfComponents="3" format="ascii" type="Float32">7.1759868372585771 1.2 2 32.497358359169453 1.2 2 75.694174862300017 1.2 2 78.404624266061944 1.2 2 87.053245629619056 3.6535061001187499 2 4.7120292474210963 1.2 2 34.83714149205364 1.2 2 70.905433767932038 1.2 2 83.15036215920891 1.2 2 84.83628964848748 2.8285764574315784 2 9.0934379941404355 2.6412247587237001 2 31.253924444349348 3.2936324155796814 2 73.910937735441948 3.5151432545569716 2 77.064794015058396 3.1705628780737616 2 89.054645394177811 2.4411967059085264 2 4.8767618483486865 3.5883407962812188 2 36.339436667222756 3.0951061561347704 2 73.313886902086395 1.2 2 80.805634823633 1.2 2 86.643243454615245 1.2 2 </DataArray>
</Points>
<Cells>
<DataArray Name="connectivity" format="ascii" type="Int32">0</DataArray>
<DataArray Name="offsets" format="ascii" type="Int32">0</DataArray>
<DataArray Name="types" format="ascii" type="UInt8">1</DataArray>
</Cells>
<PointData>
<DataArray Name="Points" NumberOfComponents="3" format="ascii" type="Float32">7.1759868372585771 1.2 2 32.497358359169453 1.2 2 75.694174862300017 1.2 2 78.404624266061944 1.2 2 87.053245629619056 3.6535061001187499 2 4.7120292474210963 1.2 2 34.83714149205364 1.2 2 70.905433767932038 1.2 2 83.15036215920891 1.2 2 84.83628964848748 2.8285764574315784 2 9.0934379941404355 2.6412247587237001 2 31.253924444349348 3.2936324155796814 2 73.910937735441948 3.5151432545569716 2 77.064794015058396 3.1705628780737616 2 89.054645394177811 2.4411967059085264 2 4.8767618483486865 3.5883407962812188 2 36.339436667222756 3.0951061561347704 2 73.313886902086395 1.2 2 80.805634823633 1.2 2 86.643243454615245 1.2 2 </DataArray>
<DataArray Name="forces" NumberOfComponents="3" format="ascii" type="Float32">-0.0069891042120640411 -0.0053278290572352904 0.0 0.033481229302575126 -0.0039928058703415179 0.0 0.0087545798019400666 -0.014113247373240748 0.0 -0.028379883632252193 -0.022224596534964124 0.0 0.0021157169111998622 0.052757659069885776 0.0 -0.0015653776700957768 -0.023269744778391655 0.0 -0.0013638113795189223 -0.0027891458112947656 0.0 -0.01638931275458554 -0.019034897820903337 0.0 -0.0071145484318401384 -0.049922910686488721 0.0 -0.0080055828740124776 0.028337284582823096 0.0 0.0024855026523516168 0.0079775381530907269 0.0 0.010758954509704653 0.027319897259622555 0.0 0.0060130683994905282 0.022945525814499563 0.0 -0.0056606566437528236 0.036337843908204874 0.0 -0.032563546717115859 -0.015676041490385741 0.0 0.0015653776700957768 0.023269744778391655 0.0 -0.0084155492232621497 0.035723144871964686 0.0 0.009216322545817314 -0.022945525814499563 0.0 -0.0012040069319567692 0.0 0.0 0.0 0.0 0.0 </DataArray>
<DataArray Name="radii" format="ascii" type="Float32">1.2 1.2 1.2 1.2 1.2 1.2 1.2 1.2 1.2 1.2 1.2 1.2 1.2 1.2 1.2 1.2 1.2 1.2 1.2 1.2 </DataArray>
</PointData>
<CellData/>
</Piece>
</UnstructuredGrid>
</VTKFile>
