<?xml version="1.0" ?>
<VTKFile byte_order="LittleEndian" type="UnstructuredGrid" version="0.1">
<UnstructuredGrid>
<Piece NumberOfCells="0" NumberOfPoints="181">
<Points>
<DataArray NumberOfComponents="3" format="ascii" type="Float32">8.6412107140445258 1.5999999999999999 2 29.868885952835736 1.5999999999999999 2 76.853556464549825 2.688199667240565 2 79.883018684961243 3.1196396119788301 2 88.693446008977617 3.7597139051672221 2 2.8786036049778962 1.5999999999999999 2 34.779340254707989 2.6748032968347202 2 68.866441279371756 1.5999999999999999 2 85.255961252053439 1.5999999999999999 2 87.534094280843746 10.641713206240809 2 5.1009030145232996 8.8547396002893652 2 31.606202900739877 9.1421215580783013 2 75.303631609232298 8.8706823269683017 2 79.452245202771365 6.7145527538183787 2 92.386440977106389 4.4154674954208382 2 4.4060914945400418 6.3695204699635735 2 34.781374168862691 4.7574701918068794 2 69.697917384367329 1.5999999999999999 2 81.154671018910051 7.0948910854121667 2 87.332992767751065 1.5999999999999999 2 5.1856735629555235 1.5999999999999999 2 27.973849919931414 1.5999999999999999 2 75.01655559163413 3.2682952814177284 2 77.689556564217796 4.5623254428655367 2 89.182539554760837 8.6357975276080392 2 3.7910158835427632 2.6975620815980408 2 37.808558955076023 3.1779994858484386 2 71.206218089737234 4.745361505000476 2 85.647976111289267 3.1883375298314385 2 85.290035989375141 9.3377998130189681 2 7.5260366385458921 4.4285856223349915 2 27.333055970592746 8.4995123426534498 2 71.859450255449943 9.6679556520384917 2 75.868812602256867 5.371188110325825 2 93.970689810409681 1.5999999999999999 2 95.339091476064411 1.5999999999999999 2 3.0192684893633293 5.5059746093778053 2 35.980390343905952 7.9224887403319686 2 72.84480466582059 4.1408121313247426 2 81.319581955820311 2.2422472903607851 2 91.394796956935565 2.6975429488777931 2 11.496405117810317 2.3888926246282893 2 32.062798227145592 2.5923301323457486 2 78.364028658418675 3.2534205807405003 2 78.685598701923666 1.5999999999999999 2 90.082541334785219 3.6926290809801867 2 1.5999999999999999 3.5151736276461727 2 11.232518602813633 7.284170409468393 2 33.829355415836943 1.5999999999999999 2 68.365354504727065 6.1513360029653059 2 68.842423690399514 3.2718716186462644 2 83.416522742361195 1.5999999999999999 2 89.035029508621477 6.6301922729667462 2 7.3486731617998968 9.6616275424361362 2 34.169286354892442 6.6293635528480168 2 74.015329303165061 6.3923921224589826 2 77.009139990165323 10.629346136625845 2 91.730293806062704 8.5170426486481183 2 5.9493308783601773 5.8233320750003879 2 32.932869467753427 4.920482781583174 2 73.433690207207178 1.5999999999999999 2 84.241976901009707 3.9411788662838698 2 89.464856218979392 1.5999999999999999 2 7.6146410964810123 2.5234826074530785 2 26.009567127676803 3.9959330726444628 2 29.730814071782035 7.3218481381817497 2 74.488630886901745 1.5999999999999999 2 80.614190962213243 5.3205573218486677 2 93.864237629325075 8.120826287386695 2 5.0569414068548255 4.0292130187223636 2 36.35636193279084 1.5999999999999999 2 69.786893178709988 8.4657927087901328 2 85.052818357610704 6.9374326170993958 2 83.922795261152245 5.6527225677261539 2 8.8314709263356779 7.233349809472859 2 26.179840255363629 6.6161876667636141 2 73.300198644269912 8.2465605229542263 2 77.253440503130605 7.8501488157025685 2 94.390930406542267 5.2006353714941627 2 95.429895952331634 4.1520803394986805 2 1.5999999999999999 6.7907571618049749 2 37.185025622368066 4.5149471849136722 2 72.398370100522754 1.5999999999999999 2 82.878565220237022 2.9186000990244971 2 90.451497312332449 1.5999999999999999 2 96.844513220308272 4.3748669089880741 2 9.7874286675350426 1.5999999999999999 2 29.891841473612985 2.7444897371564414 2 76.511503023885695 1.5999999999999999 2 81.281462929237804 4.1567831396819788 2 88.48550620779227 5.2734125686981681 2 1.5999999999999999 1.900357861942525 2 32.602073291703832 1.5999999999999999 2 67.907043763490478 1.5999999999999999 2 86.241533349625328 1.5999999999999999 2 87.037478703271489 7.8347582576398125 2 6.9194906813888881 7.0910491292105569 2 11.51385793070099 4.1823926323476934 2 34.104032204673501 9.3357220092714854 2 74.075627824731342 11.108715407295307 2 78.96652803085226 8.7591179054576092 2 92.978606822420645 6.1499850948957224 2 3.1411098922915546 8.1200996664793266 2 33.284498271390284 3.6852560937244419 2 66.139310751103181 1.5999999999999999 2 70.630411193631872 1.5999999999999999 2 81.313499048335231 9.1312214244745817 2 88.505117617038152 1.5999999999999999 2 6.1561715945901767 1.5999999999999999 2 29.084117274756434 3.658316855502068 2 74.292991732354949 4.4834964558453692 2 79.340708289455605 4.4617097870861766 2 90.699976913887625 10.831602047989403 2 4.1776869419482896 1.5999999999999999 2 37.377120939824799 1.5999999999999999 2 71.459356617554377 3.3757405901965969 2 87.025553124203881 4.2015125930705066 2 83.225872412452773 10.968731223289886 2 98.4 2.0075379936604354 2 9.0026321620309826 3.7921152509550398 2 29.169852125995856 10.119486962446002 2 69.886207048932704 11.236686297990923 2 76.194872203220314 4.0611007708648632 2 92.833783305827637 1.5999999999999999 2 96.341695084227268 1.5999999999999999 2 1.5999999999999999 4.7489272827087934 2 37.610089693883957 9.8644480181696856 2 72.619472093096164 5.826562814658482 2 80.829499213688933 1.5999999999999999 2 93.121828487325388 3.392445850935466 2 10.171734477961648 2.8358482994685641 2 31.189537697325878 1.5999999999999999 2 77.682916977797916 1.5999999999999999 2 79.71737813897353 1.5999999999999999 2 90.771199104950853 4.8444005513427104 2 1.5999999999999999 1.5999999999999999 2 12.542546949076364 9.3908281791565997 2 35.17425342743153 1.5999999999999999 2 68.331521553789798 4.4457441919533993 2 69.972553541794099 4.1100028688351431 2 82.316894167223211 1.5999999999999999 2 86.6976264134275 5.9787742160796231 2 9.9266014863306253 9.6180675183806112 2 12.830784391768114 1.5999999999999999 2 32.256819302347076 6.9357821367159627 2 75.693160846232075 6.825416929286539 2 79.799039124221352 11.249768519772845 2 90.968518777199662 6.5945474321169817 2 6.2421655603741462 3.6788057569184889 2 31.03983311443217 4.1215083545040008 2 66.735095889807738 2.713959181169439 2 73.489219011480458 2.8424486293536502 2 84.343380269524729 1.5999999999999999 2 87.601360001847041 2.6952789035845646 2 7.2770202257313672 1.5999999999999999 2 27.170813262123492 4.6102359016853969 2 30.905528189133843 5.5116570372347091 2 39.227770704207209 4.4217188573313031 2 75.50258191760777 1.5999999999999999 2 82.478117785036559 6.2084418892110769 2 96.136779914392719 8.8923215440920487 2 3.5623020483399723 4.0312962772024994 2 35.993594715453497 3.6385779112043117 2 38.980394756035224 2.4280537513851868 2 69.797731589135793 6.231924494244101 2 85.55494340592746 4.6346392069724267 2 83.339217098250558 8.1826137867964377 2 8.7075956157560057 5.3911614384047182 2 25.112015717425294 1.5999999999999999 2 28.106138081228419 6.0974080119836351 2 71.342142606138367 7.0647152346571866 2 77.937066307274321 6.0760050447067799 2 94.66308578203477 2.7114730588110012 2 97.571733440058154 3.0452150138469145 2 1.5999999999999999 9.6664269572641874 2 26.54347759278755 1.5999999999999999 2 36.487875644287143 5.9496284333384173 2 71.447130569927367 1.5999999999999999 2 82.719027474772162 4.2769177648508983 2 91.685366799200537 1.5999999999999999 2 96.815564598439721 6.5260259005873644 2 </DataArray>
</Points>
<Cells>
<DataArray Name="connectivity" format="ascii" type="Int32">0</DataArray>
<DataArray Name="offsets" format="ascii" type="Int32">0</DataArray>
<DataArray Name="types" format="ascii" type="UInt8">1</DataArray>
</Cells>
<PointData>
<DataArray Name="Points" NumberOfComponents="3" format="ascii" type="Float32">8.6412107140445258 1.5999999999999999 2 29.868885952835736 1.5999999999999999 2 76.853556464549825 2.688199667240565 2 79.883018684961243 3.1196396119788301 2 88.693446008977617 3.7597139051672221 2 2.8786036049778962 1.5999999999999999 2 34.779340254707989 2.6748032968347202 2 68.866441279371756 1.5999999999999999 2 85.255961252053439 1.5999999999999999 2 87.534094280843746 10.641713206240809 2 5.1009030145232996 8.8547396002893652 2 31.606202900739877 9.1421215580783013 2 75.303631609232298 8.8706823269683017 2 79.452245202771365 6.7145527538183787 2 92.386440977106389 4.4154674954208382 2 4.4060914945400418 6.3695204699635735 2 34.781374168862691 4.7574701918068794 2 69.697917384367329 1.5999999999999999 2 81.154671018910051 7.0948910854121667 2 87.332992767751065 1.5999999999999999 2 5.1856735629555235 1.5999999999999999 2 27.973849919931414 1.5999999999999999 2 75.01655559163413 3.2682952814177284 2 77.689556564217796 4.5623254428655367 2 89.182539554760837 8.6357975276080392 2 3.7910158835427632 2.6975620815980408 2 37.808558955076023 3.1779994858484386 2 71.206218089737234 4.745361505000476 2 85.647976111289267 3.1883375298314385 2 85.290035989375141 9.3377998130189681 2 7.5260366385458921 4.4285856223349915 2 27.333055970592746 8.4995123426534498 2 71.859450255449943 9.6679556520384917 2 75.868812602256867 5.371188110325825 2 93.970689810409681 1.5999999999999999 2 95.339091476064411 1.5999999999999999 2 3.0192684893633293 5.5059746093778053 2 35.980390343905952 7.9224887403319686 2 72.84480466582059 4.1408121313247426 2 81.319581955820311 2.2422472903607851 2 91.394796956935565 2.6975429488777931 2 11.496405117810317 2.3888926246282893 2 32.062798227145592 2.5923301323457486 2 78.364028658418675 3.2534205807405003 2 78.685598701923666 1.5999999999999999 2 90.082541334785219 3.6926290809801867 2 1.5999999999999999 3.5151736276461727 2 11.232518602813633 7.284170409468393 2 33.829355415836943 1.5999999999999999 2 68.365354504727065 6.1513360029653059 2 68.842423690399514 3.2718716186462644 2 83.416522742361195 1.5999999999999999 2 89.035029508621477 6.6301922729667462 2 7.3486731617998968 9.6616275424361362 2 34.169286354892442 6.6293635528480168 2 74.015329303165061 6.3923921224589826 2 77.009139990165323 10.629346136625845 2 91.730293806062704 8.5170426486481183 2 5.9493308783601773 5.8233320750003879 2 32.932869467753427 4.920482781583174 2 73.433690207207178 1.5999999999999999 2 84.241976901009707 3.9411788662838698 2 89.464856218979392 1.5999999999999999 2 7.6146410964810123 2.5234826074530785 2 26.009567127676803 3.9959330726444628 2 29.730814071782035 7.3218481381817497 2 74.488630886901745 1.5999999999999999 2 80.614190962213243 5.3205573218486677 2 93.864237629325075 8.120826287386695 2 5.0569414068548255 4.0292130187223636 2 36.35636193279084 1.5999999999999999 2 69.786893178709988 8.4657927087901328 2 85.052818357610704 6.9374326170993958 2 83.922795261152245 5.6527225677261539 2 8.8314709263356779 7.233349809472859 2 26.179840255363629 6.6161876667636141 2 73.300198644269912 8.2465605229542263 2 77.253440503130605 7.8501488157025685 2 94.390930406542267 5.2006353714941627 2 95.429895952331634 4.1520803394986805 2 1.5999999999999999 6.7907571618049749 2 37.185025622368066 4.5149471849136722 2 72.398370100522754 1.5999999999999999 2 82.878565220237022 2.9186000990244971 2 90.451497312332449 1.5999999999999999 2 96.844513220308272 4.3748669089880741 2 9.7874286675350426 1.5999999999999999 2 29.891841473612985 2.7444897371564414 2 76.511503023885695 1.5999999999999999 2 81.281462929237804 4.1567831396819788 2 88.48550620779227 5.2734125686981681 2 1.5999999999999999 1.900357861942525 2 32.602073291703832 1.5999999999999999 2 67.907043763490478 1.5999999999999999 2 86.241533349625328 1.5999999999999999 2 87.037478703271489 7.8347582576398125 2 6.9194906813888881 7.0910491292105569 2 11.51385793070099 4.1823926323476934 2 34.104032204673501 9.3357220092714854 2 74.075627824731342 11.108715407295307 2 78.96652803085226 8.7591179054576092 2 92.978606822420645 6.1499850948957224 2 3.1411098922915546 8.1200996664793266 2 33.284498271390284 3.6852560937244419 2 66.139310751103181 1.5999999999999999 2 70.630411193631872 1.5999999999999999 2 81.313499048335231 9.1312214244745817 2 88.505117617038152 1.5999999999999999 2 6.1561715945901767 1.5999999999999999 2 29.084117274756434 3.658316855502068 2 74.292991732354949 4.4834964558453692 2 79.340708289455605 4.4617097870861766 2 90.699976913887625 10.831602047989403 2 4.1776869419482896 1.5999999999999999 2 37.377120939824799 1.5999999999999999 2 71.459356617554377 3.3757405901965969 2 87.025553124203881 4.2015125930705066 2 83.225872412452773 10.968731223289886 2 98.4 2.0075379936604354 2 9.0026321620309826 3.7921152509550398 2 29.169852125995856 10.119486962446002 2 69.886207048932704 11.236686297990923 2 76.194872203220314 4.0611007708648632 2 92.833783305827637 1.5999999999999999 2 96.341695084227268 1.5999999999999999 2 1.5999999999999999 4.7489272827087934 2 37.610089693883957 9.8644480181696856 2 72.619472093096164 5.826562814658482 2 80.829499213688933 1.5999999999999999 2 93.121828487325388 3.392445850935466 2 10.171734477961648 2.8358482994685641 2 31.189537697325878 1.5999999999999999 2 77.682916977797916 1.5999999999999999 2 79.71737813897353 1.5999999999999999 2 90.771199104950853 4.8444005513427104 2 1.5999999999999999 1.5999999999999999 2 12.542546949076364 9.3908281791565997 2 35.17425342743153 1.5999999999999999 2 68.331521553789798 4.4457441919533993 2 69.972553541794099 4.1100028688351431 2 82.316894167223211 1.5999999999999999 2 86.6976264134275 5.9787742160796231 2 9.9266014863306253 9.6180675183806112 2 12.830784391768114 1.5999999999999999 2 32.256819302347076 6.9357821367159627 2 75.693160846232075 6.825416929286539 2 79.799039124221352 11.249768519772845 2 90.968518777199662 6.5945474321169817 2 6.2421655603741462 3.6788057569184889 2 31.03983311443217 4.1215083545040008 2 66.735095889807738 2.713959181169439 2 73.489219011480458 2.8424486293536502 2 84.343380269524729 1.5999999999999999 2 87.601360001847041 2.6952789035845646 2 7.2770202257313672 1.5999999999999999 2 27.170813262123492 4.6102359016853969 2 30.905528189133843 5.5116570372347091 2 39.227770704207209 4.4217188573313031 2 75.50258191760777 1.5999999999999999 2 82.478117785036559 6.2084418892110769 2 96.136779914392719 8.8923215440920487 2 3.5623020483399723 4.0312962772024994 2 35.993594715453497 3.6385779112043117 2 38.980394756035224 2.4280537513851868 2 69.797731589135793 6.231924494244101 2 85.55494340592746 4.6346392069724267 2 83.339217098250558 8.1826137867964377 2 8.7075956157560057 5.3911614384047182 2 25.112015717425294 1.5999999999999999 2 28.106138081228419 6.0974080119836351 2 71.342142606138367 7.0647152346571866 2 77.937066307274321 6.0760050447067799 2 94.66308578203477 2.7114730588110012 2 97.571733440058154 3.0452150138469145 2 1.5999999999999999 9.6664269572641874 2 26.54347759278755 1.5999999999999999 2 36.487875644287143 5.9496284333384173 2 71.447130569927367 1.5999999999999999 2 82.719027474772162 4.2769177648508983 2 91.685366799200537 1.5999999999999999 2 96.815564598439721 6.5260259005873644 2 </DataArray>
<DataArray Name="forces" NumberOfComponents="3" format="ascii" type="Float32">0.069132935722628908 -3.0925142628915725 0.0 0.03518632057577098 -3.0091744144039034 0.0 0.048082435505323762 1.2055453904372615 0.0 0.23496425784095504 1.301774685914644 0.0 0.093846498345661722 1.2302457571394516 0.0 0.14638688907462055 -3.2077423300912882 0.0 -0.0048648643420499127 1.2075663476913372 0.0 -0.075178291093703109 -2.4954248813000781 0.0 0.32475308269767961 -2.7615282244318071 0.0 0.17451297588780407 1.1129018331951772 0.0 -0.052457673966867624 1.2260905595520053 0.0 0.0073130019294881943 1.0018347169589195 0.0 -0.065359813755458407 1.142561545339652 0.0 0.078962853533280697 1.16825550565912 0.0 0.19681631548335557 1.149912394175554 0.0 0.12948077373200423 1.1070766693913288 0.0 -0.0078645172752370707 1.1221574257557179 0.0 -0.13382710193486047 -2.3316036624061729 0.0 -0.012260848314351924 1.0300222909615599 0.0 0.13667749933441176 -3.749556655433131 0.0 0.10725743118152789 -2.8634578026131678 0.0 0.10180934193355773 -0.89140822617735749 0.0 0.061044655307883722 1.2346572828868414 0.0 -0.10889104748062739 1.2860037143343133 0.0 0.052420215662668801 0.99676224840900263 0.0 0.17074206442291845 1.3144603837665885 0.0 -0.079741434832608399 1.1578166036878585 0.0 -0.069601337980102609 0.93769427173931386 0.0 -0.14465935478202593 1.2331867783273442 0.0 0.12664949173398665 1.1870623868204844 0.0 0.13075840467207889 1.1734982958950333 0.0 -0.046609675313485838 1.0145730112696452 0.0 0.030126698533895366 1.0392008648885889 0.0 -0.085242323198479353 1.2649192560883482 0.0 0.079218391640710983 -3.0945682982215397 0.0 0.083063885393318826 -2.6256026874402765 0.0 -0.0034092494326058986 1.2683388275941796 0.0 -0.021427099109559311 0.96438903086826788 0.0 -0.21985955060635409 1.2912413673214185 0.0 0.29545106816051514 0.53168815553023907 0.0 0.027120204648139024 1.3243188977979239 0.0 0.14862076134458457 0.84569762004105486 0.0 -0.10901613118278065 1.1381994025858586 0.0 0.050959614147873901 1.3425301092286812 0.0 -0.065591066727732183 -3.4807254722363621 0.0 0.070621029232484145 1.2505322792561038 0.0 -2.8773434764901835 1.0383222358380531 0.0 0.080924184330876503 1.1571470230531147 0.0 -0.042737803477438913 -3.065877688572606 0.0 0.0050081663066634252 1.0994038551015732 0.0 0.041659882588404501 1.1388295346958632 0.0 -0.20550297273956347 -3.2821846540351993 0.0 0.32966049218195326 1.1280068047654139 0.0 0.056880899368210835 1.17213040118971 0.0 0.0090722239631751966 1.1347430795161957 0.0 -0.0027069298919943918 1.0387496226728026 0.0 0.020177955164425443 1.1773992002041689 0.0 0.083104402694959389 1.0646706203136116 0.0 0.10839137924928438 1.1952289948220216 0.0 0.003587432805741253 1.0940684299398109 0.0 0.15341957910916348 -3.7339490332748317 0.0 0.10428439622836438 0.95133787099469846 0.0 0.17604268279390078 -2.8328255286098227 0.0 0.13919771844509418 1.224650100247304 0.0 -0.058813824599710213 1.1194591063673633 0.0 -0.064928400346343618 1.0824757719521036 0.0 0.07005169905345987 -3.5096719388543596 0.0 0.10685500915860091 0.99559565741886902 0.0 0.17051548581624953 1.2414605544657269 0.0 0.050615332236048083 1.1644632202964131 0.0 -0.026528635442039372 -2.7330224490446073 0.0 0.044243775793023188 1.149905499622105 0.0 0.074468756277283554 0.9876414403460595 0.0 0.041874705663853651 1.2466188981423367 0.0 -0.01392735535314453 1.0979181382373011 0.0 0.070701577781922875 1.0893803349085469 0.0 -0.10358709565509527 1.0972241213720331 0.0 -0.014461662428425337 1.1287876700751389 0.0 0.17733187765585334 1.2189977858857945 0.0 0.16411495127271111 1.3834130713560844 0.0 -2.1909696035974058 0.98858564217648404 0.0 0.036389607247164335 1.2670196988281563 0.0 0.16231015155354367 -2.8684831132603446 0.0 0.37972807503537137 1.600619062569711 0.0 0.21242752448962099 -2.7557011197865067 0.0 0.22039621825228486 1.0332798078389311 0.0 -0.029639940217075389 -2.9549068878915756 0.0 -0.064568623668174521 1.4172681193031913 0.0 0.0083962406723725458 -3.8761986915570485 0.0 0.036855035584343776 1.0819055434913709 0.0 0.026294374401953424 1.3098005734283895 0.0 -3.4749980072018856 0.94550078542639127 0.0 -0.0030459971608678138 -3.4160786516642792 0.0 -0.093265841951925443 -2.5183877610491274 0.0 0.20616047053782205 -2.950367952378985 0.0 0.063243791918811909 1.1368398987587973 0.0 0.0040678500039003085 1.2506100161143308 0.0 0.020962888012761235 1.1597871028979747 0.0 0.10731879374535397 1.1940909015157521 0.0 -0.0068262148703359879 1.1350158362088223 0.0 -0.02361935535366036 1.224246036318672 0.0 0.28694082942352916 1.1579687980968192 0.0 -0.019023629810776654 1.0767637916687858 0.0 -0.079908229990878543 1.2052654635800788 0.0 -0.044187829897256808 -2.3942640286026031 0.0 0.074761644544021344 -2.2170690534915738 0.0 0.054411457492121063 0.99054323474349992 0.0 0.14095848392243582 -3.0739223544638694 0.0 0.10173150250976448 -2.6896502206132356 0.0 -0.10844303641633421 1.3012722052574746 0.0 -0.11471350426064437 1.0738370820002823 0.0 -0.022868147521390436 1.158110739801649 0.0 0.055863515964497845 1.048368002445174 0.0 0.056975847623010667 -3.4314486611892097 0.0 -0.019994267768957075 -2.2372960046531136 0.0 -0.48361321188448675 1.0319576375959101 0.0 0.22616312804119376 1.3592870330440352 0.0 -0.068246683825593513 1.144462143624557 0.0 2.520056923803224 1.0168886225845917 0.0 0.21480422774136265 1.284851159307292 0.0 -0.039705117077867738 1.0504540610373843 0.0 0.063257235582529214 1.1330545646475463 0.0 -0.012728786853113072 1.3090149825663997 0.0 0.14951033302312799 -3.1042889802049105 0.0 0.060897190474118901 -1.7575218223025026 0.0 -2.5890528632565317 0.9707326238685734 0.0 -0.1374916560058746 1.1802482593924131 0.0 -0.053171161475101592 1.2249364629341919 0.0 -0.3716522863873446 -4.281204636773257 0.0 0.22078556368143265 1.1913545062106601 0.0 0.20286261392285099 1.3517774902191164 0.0 -0.076471892583045015 -3.3186085874026308 0.0 -0.0017581130211570262 -3.6078702869535233 0.0 -0.15912095612903121 -3.5803019504044244 0.0 0.24419042199831723 1.1161312550671536 0.0 -3.2734667048393353 -4.5944175190708751 0.0 0.034842788185307116 1.1125478599660434 0.0 -0.049638770577548841 -3.2148203805469566 0.0 0.029287866390893869 1.2283558705736066 0.0 0.013586235483320053 0.91857269975061773 0.0 0.028576742779769626 -3.9299346075079447 0.0 -0.029540873529827039 1.2013692190979068 0.0 0.033968997666214085 1.0188579225867884 0.0 0.025742609624192614 -1.7959627126784112 0.0 0.10007004942961684 1.1393719032349807 0.0 -0.074943272497443592 1.2334437946295933 0.0 0.16992602409254742 1.1033612669838697 0.0 0.27961862483956956 1.0756100095065553 0.0 0.10356480357664047 1.3526808344687964 0.0 -0.06816832483067703 1.280470407308806 0.0 0.13598027653055755 1.2430417110386571 0.0 -0.17874104399352719 1.4091411434655443 0.0 -0.022594195263756736 -2.6072608785429483 0.0 0.17025881239000829 1.2835323014559137 0.0 0.064385614744738306 -3.5718113682772961 0.0 -0.11862852376380216 1.157950012434793 0.0 0.050255479696616756 1.2781183696607732 0.0 -0.42411636608970316 1.073654436978563 0.0 0.015215285170558701 -3.445004584852744 0.0 0.10576230071550416 1.2340309050821996 0.0 0.2977418721386858 1.1853254640808286 0.0 -0.070724589924070769 1.3063173518250617 0.0 0.0036183061754775647 1.2565149959673265 0.0 0.0037571782852123328 1.0628721250516693 0.0 -0.078032317783303107 1.1023953281654584 0.0 -0.0066611755700659581 0.89791941473999781 0.0 0.17608262221867071 1.2261051951059829 0.0 0.065303415996808112 1.2017242995865514 0.0 0.0036634136362523329 -0.89676803683612749 0.0 -0.060924618202599035 1.0312534207147739 0.0 -0.11454664699833295 0.93654238623388142 0.0 0.13752402757134174 1.2471817385411694 0.0 0.32208404548300423 1.227191777013497 0.0 0.32517473932800867 1.2644149895433539 0.0 -0.71671495003199781 1.0459509918674863 0.0 -0.015045730795946843 -0.85242378079049952 0.0 0.010895237189797596 1.1155323463708342 0.0 0.26182362990358621 -2.4107221548128388 0.0 0.037489213888496908 1.2339983677216382 0.0 0.21651041743787691 -3.4468278127758478 0.0 0.12335263276565506 1.1031717508046919 0.0 </DataArray>
<DataArray Name="radii" format="ascii" type="Float32">1.5999999999999999 1.5999999999999999 1.5999999999999999 1.5999999999999999 1.5999999999999999 1.5999999999999999 1.5999999999999999 1.5999999999999999 1.5999999999999999 1.5999999999999999 1.5999999999999999 1.5999999999999999 1.5999999999999999 1.5999999999999999 1.5999999999999999 1.5999999999999999 1.5999999999999999 1.5999999999999999 1.5999999999999999 1.5999999999999999 1.5999999999999999 1.5999999999999999 1.5999999999999999 1.5999999999999999 1.5999999999999999 1.5999999999999999 1.5999999999999999 1.5999999999999999 1.5999999999999999 1.5999999999999999 1.5999999999999999 1.5999999999999999 1.5999999999999999 1.5999999999999999 1.5999999999999999 1.5999999999999999 1.5999999999999999 1.5999999999999999 1.5999999999999999 1.5999999999999999 1.5999999999999999 1.5999999999999999 1.5999999999999999 1.5999999999999999 1.5999999999999999 1.5999999999999999 1.5999999999999999 1.5999999999999999 1.5999999999999999 1.5999999999999999 1.5999999999999999 1.5999999999999999 1.5999999999999999 1.5999999999999999 1.5999999999999999 1.5999999999999999 1.5999999999999999 1.5999999999999999 1.5999999999999999 1.5999999999999999 1.5999999999999999 1.5999999999999999 1.5999999999999999 1.5999999999999999 1.5999999999999999 1.5999999999999999 1.5999999999999999 1.5999999999999999 1.5999999999999999 1.5999999999999999 1.5999999999999999 1.5999999999999999 1.5999999999999999 1.5999999999999999 1.5999999999999999 1.5999999999999999 1.5999999999999999 1.5999999999999999 1.5999999999999999 1.5999999999999999 1.5999999999999999 1.5999999999999999 1.5999999999999999 1.5999999999999999 1.5999999999999999 1.5999999999999999 1.5999999999999999 1.5999999999999999 1.5999999999999999 1.5999999999999999 1.5999999999999999 1.5999999999999999 1.5999999999999999 1.5999999999999999 1.5999999999999999 1.5999999999999999 1.5999999999999999 1.5999999999999999 1.5999999999999999 1.5999999999999999 1.5999999999999999 1.5999999999999999 1.5999999999999999 1.5999999999999999 1.5999999999999999 1.5999999999999999 1.5999999999999999 1.5999999999999999 1.5999999999999999 1.5999999999999999 1.5999999999999999 1.5999999999999999 1.5999999999999999 1.5999999999999999 1.5999999999999999 1.5999999999999999 1.5999999999999999 1.5999999999999999 1.5999999999999999 1.5999999999999999 1.5999999999999999 1.5999999999999999 1.5999999999999999 1.5999999999999999 1.5999999999999999 1.5999999999999999 1.5999999999999999 1.5999999999999999 1.5999999999999999 1.5999999999999999 1.5999999999999999 1.5999999999999999 1.5999999999999999 1.5999999999999999 1.5999999999999999 1.5999999999999999 1.5999999999999999 1.5999999999999999 1.5999999999999999 1.5999999999999999 1.5999999999999999 1.5999999999999999 1.5999999999999999 1.5999999999999999 1.5999999999999999 1.5999999999999999 1.5999999999999999 1.5999999999999999 1.5999999999999999 1.5999999999999999 1.5999999999999999 1.5999999999999999 1.5999999999999999 1.5999999999999999 1.5999999999999999 1.5999999999999999 1.5999999999999999 1.5999999999999999 1.5999999999999999 1.5999999999999999 1.5999999999999999 1.5999999999999999 1.5999999999999999 1.5999999999999999 1.5999999999999999 1.5999999999999999 1.5999999999999999 1.5999999999999999 1.5999999999999999 1.5999999999999999 1.5999999999999999 1.5999999999999999 1.5999999999999999 1.5999999999999999 1.5999999999999999 1.5999999999999999 1.5999999999999999 1.5999999999999999 1.5999999999999999 1.5999999999999999 1.5999999999999999 </DataArray>
</PointData>
<CellData/>
</Piece>
</UnstructuredGrid>
</VTKFile>
