<?xml version="1.0" ?>
<VTKFile byte_order="LittleEndian" type="UnstructuredGrid" version="0.1">
<UnstructuredGrid>
<Piece NumberOfCells="0" NumberOfPoints="10">
<Points>
<DataArray NumberOfComponents="3" format="ascii" type="Float32">0 0 0 10.059132028879368 1.2 2 38.281000811274325 3.2744108592921526 2 68.787373323204832 3.9064023294571846 2 91.373828077699145 3.3399357631528668 2 29.427849649627436 1.2 2 37.617181517304374 1 2 68.106022634647005 1.4 2 93.60695218826045 2.6967296338405498 2 27.714924033064719 2.9053158968494195 2 </DataArray>
</Points>
<Cells>
<DataArray Name="connectivity" format="ascii" type="Int32">0</DataArray>
<DataArray Name="offsets" format="ascii" type="Int32">0</DataArray>
<DataArray Name="types" format="ascii" type="UInt8">1</DataArray>
</Cells>
<PointData>
<DataArray Name="Points" NumberOfComponents="3" format="ascii" type="Float32">0 0 0 10.059132028879368 1.2 2 38.281000811274325 3.2744108592921526 2 68.787373323204832 3.9064023294571846 2 91.373828077699145 3.3399357631528668 2 29.427849649627436 1.2 2 37.617181517304374 1 2 68.106022634647005 1.4 2 93.60695218826045 2.6967296338405498 2 27.714924033064719 2.9053158968494195 2 </DataArray>
<DataArray Name="forces" NumberOfComponents="3" format="ascii" type="Float32">0 0 0 0.0054350166047993633 -0.021842704229011967 0.0 -0.019329768957903955 0.030321367138014612 0.0 0.0085713376286894183 0.035096101878415553 0.0 0.019915595149976002 0.0076897037741474258 0.0 -0.0084081322131450108 -0.030265404305894868 0.0 -0.0071165017697980854 -0.023935846526992294 0.0 -0.059907655767432642 -0.026649705029205391 0.0 0.010738856017811185 0.017631620622459945 0.0 -0.02516986483424577 0.0067680711259159266 0.0 </DataArray>
<DataArray Name="radii" format="ascii" type="Float32">0 1.2 1.4 1.2 1 1.2 1 1.4 1 1 </DataArray>
</PointData>
<CellData/>
</Piece>
</UnstructuredGrid>
</VTKFile>
