<?xml version="1.0" ?>
<VTKFile byte_order="LittleEndian" type="UnstructuredGrid" version="0.1">
<UnstructuredGrid>
<Piece NumberOfCells="0" NumberOfPoints="763">
<Points>
<DataArray NumberOfComponents="3" format="ascii" type="Float32">10.262432295419766 1.4 2 28.686433172544422 2.0698175805459065 2 76.805988012353993 3.0060017881988905 2 80.107426064082986 3.0247208115816862 2 89.437827045158329 3.8156457361606528 2 3.2726806500214471 1.4 2 35.030771398317306 2.4351652201151341 2 67.810260689111004 1.4 2 86.542472544450249 1.4 2 87.498669577802914 9.9672251947946719 2 5.5738750155855596 7.8231172808152438 2 30.589554993005454 8.1427967128093535 2 74.53245431269373 8.7574109032361438 2 79.925548436538904 6.2248603840044794 2 93.451818478408185 4.6955329112191349 2 5.3787541578261306 6.6385604643190526 2 34.775214597258099 3.48746573302398 2 68.477716207083617 1.4 2 81.369795475493049 6.9462531403673564 2 88.29055330013793 1.4 2 5.3120640124878724 1.4 2 26.89221068802722 1.4 2 74.825640560252751 3.3506169180992895 2 77.342611094278482 4.3266547685130519 2 88.800250903627486 9.1088154390727656 2 3.584537600669603 1.4 2 38.672594335661387 3.0639132812411973 2 70.257227616121767 4.6990676957677646 2 86.331477307762455 3.866994717837986 2 87.24107046664632 8.8849956373535832 2 8.4023085023148845 4.081296331265639 2 26.142265893014663 7.5711677361677152 2 71.62034761516496 9.4441733396900673 2 76.062121614994084 5.3374764292496986 2 94.858746186192008 2.1460718509997068 2 95.645263314658237 1.4 2 1.4 6.040930896890802 2 36.252662990628529 6.9422246020740142 2 72.197142508963623 3.8402608615679119 2 80.648990174994552 1.4 2 92.660510172049314 2.3278667515618161 2 13.558938001981129 1.4 2 30.722319208755927 1.4 2 78.755855856002526 3.1960560316395012 2 79.138765003336857 1.4 2 90.47350726700266 4.2011864029953028 2 1.4 2.7539779609184065 2 13.183166406510816 6.2427857637557196 2 33.654162660531966 1.4 2 67.875147487315814 5.2614199488929252 2 67.646178786342105 2.4576245395749838 2 83.535463007263388 1.4 2 89.394502964293295 6.1515655395272661 2 8.9975765685227902 9.0698158329927203 2 33.765830856079042 5.5675726507267163 2 73.402449165314422 6.1526597177556859 2 77.679209098463232 9.840443682817158 2 93.569178703968007 8.4523940244911504 2 6.6147176974351067 5.3141212464464234 2 32.258481245180725 3.960696522377118 2 72.590627065912173 1.4 2 84.852971338099252 4.2255243289222326 2 90.175397981892957 1.4 2 8.6738262928144856 2.4731355301145017 2 25.020382073660258 2.6386054194797919 2 28.111771217828199 6.1386067213892392 2 74.181306979280095 2.0068207570481533 2 80.030812775479248 5.1943460511984574 2 96.030625532730923 8.6318541171641918 2 4.8814028862342935 4.5871738021966548 2 37.661114787035295 1.4 2 68.236569044373198 8.2004136395367748 2 85.951108569245534 7.3696722863857982 2 85.289403433599517 5.5390757999670361 2 9.255671518637989 7.6777861843840949 2 24.627167599482611 5.4334661201450061 2 73.044135860769046 7.4166530357769309 2 77.827346281185086 6.7652054707145757 2 95.864462884070079 6.0871867924423313 2 96.507203536258075 4.1597217978382002 2 1.4 7.4809784868751255 2 38.505712663816134 4.1193515894850226 2 71.912413858032892 1.4 2 82.997324420413776 2.8942208421407725 2 92.329869553078623 1.4 2 98.6 4.3243202945468031 2 10.646771749640672 1.4 2 29.289547646766461 1.4 2 76.084631659436369 1.4 2 81.314594512925851 4.3005735632348836 2 90.089004394418311 5.4507121948031285 2 1.4 1.4 2 32.210627796447497 1.4 2 66.461181710475771 1.4 2 86.84148577438954 1.4 2 86.843141898720191 7.8339331247512707 2 7.7376639690890263 7.7740952848299658 2 13.448900761280211 3.5052642180764932 2 34.279897478344111 8.5476550973983194 2 74.273962754226147 9.9668354612512751 2 78.861278177595494 9.1420274804413033 2 94.458075858883973 6.3187322843593368 2 3.0540707752525225 7.1179942361545852 2 33.597545562205241 3.3814450858627358 2 64.836009168449749 1.4 2 69.518418113793629 1.4 2 81.471925702068404 8.8466145726030501 2 88.937810134319761 1.4 2 7.7070037871375154 1.4 2 28.24610934607157 3.1761010754766872 2 73.523159423968366 3.7611272681250649 2 79.16767470782176 3.831658549222742 2 92.706332946534843 9.3809943270289597 2 3.8867649916472029 1.4 2 38.362956649347979 1.4 2 70.061366029784153 2.7861494712647716 2 88.01693767794751 3.7518503255910072 2 85.466521269259133 11.161498503007092 2 98.6 1.4 2 10.298768732758134 3.14378859886593 2 29.51444783120731 8.8434077279965955 2 69.148205548170353 9.0643658799293032 2 76.339632812476907 3.5870543597127358 2 93.2913112119533 1.4 2 97.230569203131836 1.4 2 1.4 4.3974434312863568 2 37.12662409841829 8.3950023905759892 2 71.225095759961008 5.2460850938659389 2 80.345335486856499 1.4 2 93.851185192650206 3.8528976245383184 2 11.934697621903705 3.3287922549549118 2 31.452440885565018 1.4 2 77.667327137355784 1.4 2 79.437470468429268 1.4 2 91.908127168182006 4.994087701123485 2 1.4 1.4 2 11.631700354804428 8.1214131844611614 2 35.885168912140948 1.4 2 68.039939391619797 4.4512230647389766 2 69.630934448073504 4.1021252905112036 2 82.084306643024945 1.4 2 87.942471828791753 6.3205929442254893 2 10.09203524120551 10.063335929291901 2 14.034486490963237 1.4 2 32.752345567653471 7.3273183868295932 2 76.079409212331058 6.1677442338198301 2 78.2416421187297 11.756056830537622 2 91.07766558773811 6.4652635726845968 2 7.6544431381581886 3.763527890949216 2 30.779869233484114 3.6304511336843635 2 65.676802921722199 2.5835712873426413 2 72.777157677244105 3.6457759054098906 2 84.951125321646344 1.4 2 88.901017795924687 3.472603337014192 2 8.0354768613218006 1.4 2 26.776953091960685 3.8761204245902983 2 29.779505258844591 3.9339267524521766 2 39.204197345809263 3.6436317231761279 2 74.510745175268141 1.4 2 83.161680216499676 6.2834805414996069 2 97.278146810471156 7.9117640262942315 2 3.8268593995529678 4.1868536733788373 2 35.612001791139633 3.1441687058700678 2 39.950431258905873 1.4 2 68.343064704521368 5.908639345282376 2 85.697993319690553 4.7824298293942515 2 84.464724707214756 7.5658548462879471 2 9.1319908203902358 4.9071344749092773 2 23.252792845600894 1.4 2 27.262623023952251 4.9871670503541941 2 71.103981661806586 6.6747308917931543 2 78.159178643017512 5.7594109790677033 2 96.162970971682313 3.3261522357418585 2 98.6 2.5925322864793001 2 2.3910090254090863 9.7368588986542672 2 24.971924668196891 1.4 2 36.79755419278564 5.7400209550576395 2 70.500076814487102 1.4 2 82.813187643899866 3.6400250745687432 2 92.650061012320904 1.4 2 96.84309163871815 6.8152226026874096 2 9.4331947917465957 1.4 2 30.18347363103253 2.5228832413531608 2 77.202693784831609 2.0340021114345115 2 79.490132338056384 3.131871189292827 2 89.842577984259847 3.1532499740153908 2 2.6362441965214658 3.1094956837749645 2 35.524990375442655 1.4 2 67.476998429450234 1.4 2 85.609215582650151 1.4 2 89.460972576563648 10.228944607950151 2 3.7274779107190108 9.5298670345977268 2 31.719609876157097 9.077987541920665 2 76.308285164256006 8.9938930897645761 2 80.532439014717923 7.1705424363945207 2 94.551252083122208 4.6811898567858732 2 3.4958893013891568 5.9281345631466875 2 35.176417977869285 3.9913358548868745 2 68.814129121672266 1.4 2 82.331946195660819 6.7412825148062501 2 87.986638104243795 1.4 2 6.0133557235099246 1.4 2 26.103243821959953 1.4 2 73.641219863557623 2.7681273122164827 2 78.642154153562942 5.0270858989816647 2 90.387014610649047 8.5325275220985617 2 4.0528352345439753 3.3972555059210428 2 39.388643101627217 2.696683033964296 2 68.779255509400073 3.941638923412798 2 85.944449391361886 1.4 2 84.657384249059362 9.0975368151522034 2 8.1526167447750471 5.1866358018796284 2 15.418265392358517 1.4 2 27.623149277910468 8.3566057862358942 2 71.232322481312778 7.85007673551255 2 73.879429977811739 4.546186876879232 2 95.521351541340238 2.8266399274373772 2 96.303378913319619 1.4 2 3.7456329923465281 5.0882035133908996 2 34.062413429415138 7.4311311387694019 2 65.225018066641951 5.6923303745134932 2 70.785158473505561 3.9115643187391353 2 82.381603318337937 1.4 2 93.120327146037013 3.6449398826560522 2 12.939805734474604 2.4960187196209334 2 32.408571614377834 2.5744809074265596 2 64.401191519987179 4.6718979293200977 2 77.289450674137882 3.6830178498694308 2 78.842254567079735 1.4 2 91.160352663628643 3.4646074082184941 2 1.4 3.1533370960787543 2 11.621183566590508 6.8946794831869269 2 32.565631512720891 1.4 2 41.707270886091322 4.6828623357013131 2 67.397567508993916 6.8076436767504491 2 66.330944716323657 3.3572968320208894 2 82.960186214077069 1.4 2 90.139586270721495 6.6216060733437878 2 6.6850180421407766 10.363465820478012 2 35.586799910044689 5.9185044557134514 2 75.199662093933384 5.9701120829951035 2 76.159666398278119 11.742375949623833 2 95.007066604996822 9.7080434742526656 2 6.6328349908492159 4.1901232141101152 2 33.915198279065457 4.1208280352583877 2 71.516130943201773 1.4 2 84.826167274217894 2.6724369982605261 2 89.546684506621787 1.4 2 9.8433967530150834 1.4 2 23.787030973970161 4.5228336126592579 2 30.423006263544085 6.8155717792225943 2 75.130910467923044 1.4 2 81.771113007018229 5.0874313272177547 2 94.343510576884341 7.3417956972782097 2 5.7264096752930245 4.9050615426158366 2 36.965553635357359 1.4 2 66.001774665244099 7.8986389751356239 2 70.229048380705379 7.1651872007529747 2 85.07969151990676 6.6914858242632453 2 83.800512190313412 4.7293938303506575 2 10.515838505327977 5.9776687506534758 2 25.904979873164212 5.5337572520819327 2 73.150962702515116 8.7814005758531408 2 77.423281512602415 8.6237981660166003 2 96.695142197288646 5.869919140502466 2 95.647051643411743 3.8415054920099134 2 1.4 5.4668772251122224 2 36.500260311435746 4.2039457250007999 2 71.169767744254912 1.4 2 81.631642811205865 2.8902778292231792 2 91.106721097656873 1.4 2 97.565276029371617 3.4551003362501822 2 11.7909199324037 1.4 2 27.311750850341067 1.4 2 42.492204596595847 1.4 2 76.396074847506497 1.4 2 82.103271148114501 3.9863363487201662 2 88.585206485333728 4.3084419631291508 2 1.4 1.4 2 33.274563729482381 1.4 2 66.1
[...]
<PointData>
<DataArray Name="Points" NumberOfComponents="3" format="ascii" type="Float32">10.262432295419766 1.4 2 28.686433172544422 2.0698175805459065 2 76.805988012353993 3.0060017881988905 2 80.107426064082986 3.0247208115816862 2 89.437827045158329 3.8156457361606528 2 3.2726806500214471 1.4 2 35.030771398317306 2.4351652201151341 2 67.810260689111004 1.4 2 86.542472544450249 1.4 2 87.498669577802914 9.9672251947946719 2 5.5738750155855596 7.8231172808152438 2 30.589554993005454 8.1427967128093535 2 74.53245431269373 8.7574109032361438 2 79.925548436538904 6.2248603840044794 2 93.451818478408185 4.6955329112191349 2 5.3787541578261306 6.6385604643190526 2 34.775214597258099 3.48746573302398 2 68.477716207083617 1.4 2 81.369795475493049 6.9462531403673564 2 88.29055330013793 1.4 2 5.3120640124878724 1.4 2 26.89221068802722 1.4 2 74.825640560252751 3.3506169180992895 2 77.342611094278482 4.3266547685130519 2 88.800250903627486 9.1088154390727656 2 3.584537600669603 1.4 2 38.672594335661387 3.0639132812411973 2 70.257227616121767 4.6990676957677646 2 86.331477307762455 3.866994717837986 2 87.24107046664632 8.8849956373535832 2 8.4023085023148845 4.081296331265639 2 26.142265893014663 7.5711677361677152 2 71.62034761516496 9.4441733396900673 2 76.062121614994084 5.3374764292496986 2 94.858746186192008 2.1460718509997068 2 95.645263314658237 1.4 2 1.4 6.040930896890802 2 36.252662990628529 6.9422246020740142 2 72.197142508963623 3.8402608615679119 2 80.648990174994552 1.4 2 92.660510172049314 2.3278667515618161 2 13.558938001981129 1.4 2 30.722319208755927 1.4 2 78.755855856002526 3.1960560316395012 2 79.138765003336857 1.4 2 90.47350726700266 4.2011864029953028 2 1.4 2.7539779609184065 2 13.183166406510816 6.2427857637557196 2 33.654162660531966 1.4 2 67.875147487315814 5.2614199488929252 2 67.646178786342105 2.4576245395749838 2 83.535463007263388 1.4 2 89.394502964293295 6.1515655395272661 2 8.9975765685227902 9.0698158329927203 2 33.765830856079042 5.5675726507267163 2 73.402449165314422 6.1526597177556859 2 77.679209098463232 9.840443682817158 2 93.569178703968007 8.4523940244911504 2 6.6147176974351067 5.3141212464464234 2 32.258481245180725 3.960696522377118 2 72.590627065912173 1.4 2 84.852971338099252 4.2255243289222326 2 90.175397981892957 1.4 2 8.6738262928144856 2.4731355301145017 2 25.020382073660258 2.6386054194797919 2 28.111771217828199 6.1386067213892392 2 74.181306979280095 2.0068207570481533 2 80.030812775479248 5.1943460511984574 2 96.030625532730923 8.6318541171641918 2 4.8814028862342935 4.5871738021966548 2 37.661114787035295 1.4 2 68.236569044373198 8.2004136395367748 2 85.951108569245534 7.3696722863857982 2 85.289403433599517 5.5390757999670361 2 9.255671518637989 7.6777861843840949 2 24.627167599482611 5.4334661201450061 2 73.044135860769046 7.4166530357769309 2 77.827346281185086 6.7652054707145757 2 95.864462884070079 6.0871867924423313 2 96.507203536258075 4.1597217978382002 2 1.4 7.4809784868751255 2 38.505712663816134 4.1193515894850226 2 71.912413858032892 1.4 2 82.997324420413776 2.8942208421407725 2 92.329869553078623 1.4 2 98.6 4.3243202945468031 2 10.646771749640672 1.4 2 29.289547646766461 1.4 2 76.084631659436369 1.4 2 81.314594512925851 4.3005735632348836 2 90.089004394418311 5.4507121948031285 2 1.4 1.4 2 32.210627796447497 1.4 2 66.461181710475771 1.4 2 86.84148577438954 1.4 2 86.843141898720191 7.8339331247512707 2 7.7376639690890263 7.7740952848299658 2 13.448900761280211 3.5052642180764932 2 34.279897478344111 8.5476550973983194 2 74.273962754226147 9.9668354612512751 2 78.861278177595494 9.1420274804413033 2 94.458075858883973 6.3187322843593368 2 3.0540707752525225 7.1179942361545852 2 33.597545562205241 3.3814450858627358 2 64.836009168449749 1.4 2 69.518418113793629 1.4 2 81.471925702068404 8.8466145726030501 2 88.937810134319761 1.4 2 7.7070037871375154 1.4 2 28.24610934607157 3.1761010754766872 2 73.523159423968366 3.7611272681250649 2 79.16767470782176 3.831658549222742 2 92.706332946534843 9.3809943270289597 2 3.8867649916472029 1.4 2 38.362956649347979 1.4 2 70.061366029784153 2.7861494712647716 2 88.01693767794751 3.7518503255910072 2 85.466521269259133 11.161498503007092 2 98.6 1.4 2 10.298768732758134 3.14378859886593 2 29.51444783120731 8.8434077279965955 2 69.148205548170353 9.0643658799293032 2 76.339632812476907 3.5870543597127358 2 93.2913112119533 1.4 2 97.230569203131836 1.4 2 1.4 4.3974434312863568 2 37.12662409841829 8.3950023905759892 2 71.225095759961008 5.2460850938659389 2 80.345335486856499 1.4 2 93.851185192650206 3.8528976245383184 2 11.934697621903705 3.3287922549549118 2 31.452440885565018 1.4 2 77.667327137355784 1.4 2 79.437470468429268 1.4 2 91.908127168182006 4.994087701123485 2 1.4 1.4 2 11.631700354804428 8.1214131844611614 2 35.885168912140948 1.4 2 68.039939391619797 4.4512230647389766 2 69.630934448073504 4.1021252905112036 2 82.084306643024945 1.4 2 87.942471828791753 6.3205929442254893 2 10.09203524120551 10.063335929291901 2 14.034486490963237 1.4 2 32.752345567653471 7.3273183868295932 2 76.079409212331058 6.1677442338198301 2 78.2416421187297 11.756056830537622 2 91.07766558773811 6.4652635726845968 2 7.6544431381581886 3.763527890949216 2 30.779869233484114 3.6304511336843635 2 65.676802921722199 2.5835712873426413 2 72.777157677244105 3.6457759054098906 2 84.951125321646344 1.4 2 88.901017795924687 3.472603337014192 2 8.0354768613218006 1.4 2 26.776953091960685 3.8761204245902983 2 29.779505258844591 3.9339267524521766 2 39.204197345809263 3.6436317231761279 2 74.510745175268141 1.4 2 83.161680216499676 6.2834805414996069 2 97.278146810471156 7.9117640262942315 2 3.8268593995529678 4.1868536733788373 2 35.612001791139633 3.1441687058700678 2 39.950431258905873 1.4 2 68.343064704521368 5.908639345282376 2 85.697993319690553 4.7824298293942515 2 84.464724707214756 7.5658548462879471 2 9.1319908203902358 4.9071344749092773 2 23.252792845600894 1.4 2 27.262623023952251 4.9871670503541941 2 71.103981661806586 6.6747308917931543 2 78.159178643017512 5.7594109790677033 2 96.162970971682313 3.3261522357418585 2 98.6 2.5925322864793001 2 2.3910090254090863 9.7368588986542672 2 24.971924668196891 1.4 2 36.79755419278564 5.7400209550576395 2 70.500076814487102 1.4 2 82.813187643899866 3.6400250745687432 2 92.650061012320904 1.4 2 96.84309163871815 6.8152226026874096 2 9.4331947917465957 1.4 2 30.18347363103253 2.5228832413531608 2 77.202693784831609 2.0340021114345115 2 79.490132338056384 3.131871189292827 2 89.842577984259847 3.1532499740153908 2 2.6362441965214658 3.1094956837749645 2 35.524990375442655 1.4 2 67.476998429450234 1.4 2 85.609215582650151 1.4 2 89.460972576563648 10.228944607950151 2 3.7274779107190108 9.5298670345977268 2 31.719609876157097 9.077987541920665 2 76.308285164256006 8.9938930897645761 2 80.532439014717923 7.1705424363945207 2 94.551252083122208 4.6811898567858732 2 3.4958893013891568 5.9281345631466875 2 35.176417977869285 3.9913358548868745 2 68.814129121672266 1.4 2 82.331946195660819 6.7412825148062501 2 87.986638104243795 1.4 2 6.0133557235099246 1.4 2 26.103243821959953 1.4 2 73.641219863557623 2.7681273122164827 2 78.642154153562942 5.0270858989816647 2 90.387014610649047 8.5325275220985617 2 4.0528352345439753 3.3972555059210428 2 39.388643101627217 2.696683033964296 2 68.779255509400073 3.941638923412798 2 85.944449391361886 1.4 2 84.657384249059362 9.0975368151522034 2 8.1526167447750471 5.1866358018796284 2 15.418265392358517 1.4 2 27.623149277910468 8.3566057862358942 2 71.232322481312778 7.85007673551255 2 73.879429977811739 4.546186876879232 2 95.521351541340238 2.8266399274373772 2 96.303378913319619 1.4 2 3.7456329923465281 5.0882035133908996 2 34.062413429415138 7.4311311387694019 2 65.225018066641951 5.6923303745134932 2 70.785158473505561 3.9115643187391353 2 82.381603318337937 1.4 2 93.120327146037013 3.6449398826560522 2 12.939805734474604 2.4960187196209334 2 32.408571614377834 2.5744809074265596 2 64.401191519987179 4.6718979293200977 2 77.289450674137882 3.6830178498694308 2 78.842254567079735 1.4 2 91.160352663628643 3.4646074082184941 2 1.4 3.1533370960787543 2 11.621183566590508 6.8946794831869269 2 32.565631512720891 1.4 2 41.707270886091322 4.6828623357013131 2 67.397567508993916 6.8076436767504491 2 66.330944716323657 3.3572968320208894 2 82.960186214077069 1.4 2 90.139586270721495 6.6216060733437878 2 6.6850180421407766 10.363465820478012 2 35.586799910044689 5.9185044557134514 2 75.199662093933384 5.9701120829951035 2 76.159666398278119 11.742375949623833 2 95.007066604996822 9.7080434742526656 2 6.6328349908492159 4.1901232141101152 2 33.915198279065457 4.1208280352583877 2 71.516130943201773 1.4 2 84.826167274217894 2.6724369982605261 2 89.546684506621787 1.4 2 9.8433967530150834 1.4 2 23.787030973970161 4.5228336126592579 2 30.423006263544085 6.8155717792225943 2 75.130910467923044 1.4 2 81.771113007018229 5.0874313272177547 2 94.343510576884341 7.3417956972782097 2 5.7264096752930245 4.9050615426158366 2 36.965553635357359 1.4 2 66.001774665244099 7.8986389751356239 2 70.229048380705379 7.1651872007529747 2 85.07969151990676 6.6914858242632453 2 83.800512190313412 4.7293938303506575 2 10.515838505327977 5.9776687506534758 2 25.904979873164212 5.5337572520819327 2 73.150962702515116 8.7814005758531408 2 77.423281512602415 8.6237981660166003 2 96.695142197288646 5.869919140502466 2 95.647051643411743 3.8415054920099134 2 1.4 5.4668772251122224 2 36.500260311435746 4.2039457250007999 2 71.169767744254912 1.4 2 81.631642811205865 2.8902778292231792 2 91.106721097656873 1.4 2 97.565276029371617 3.4551003362501822 2 11.7909199324037 1.4 2 27.311750850341067 1.4 2 42.492204596595847 1.4 2 76.396074847506497 1.4 2 82.103271148114501 3.9863363487201662 2 88.585206485333728 4.3084419631291508 2 1.4 1.4 2 33.274563729482381 1.4 2 66.128378714215017 1.4 2 87.245841472649786 3.2647845207086754 2 88.088199012837677 8.0721358036011051 2 7.8783479620726879 6.1695033872814582 2 12.429786431162796 4.3590072299237601 2 34.902139264368827 10.050616607286626 2 71.880796288932444 10.900695096521568 2 78.678234618130375 7.3366659057734331 2 92.775652059013353 5.655665688489468 2 4.3381839337589447 7.2126557556388917 2 22.167357252675231 6.9906934334076132 2 31.032611662186483 2.996318958755102 2 64.277178963361564 1.4 2 69.14950531057697 1.4 2 80.22462502086654 9.456457827714825 2 89.861644694556318 1.4 2 6.7035649161395323 1.4 2 29.139916507663838 2.9085117154118825 2 73.449194708567447 5.2875030492224138 2 78.457961774325298 4.0626786304469009 2 91.424526426628589 11.027868162403522 2 4.9196858829637353 1.4 2 38.702877894542731 1.4 2 71.519562694185595 3.462942031710166 2 87.145259269382578 3.8757457962147743 2 82.478486587327453 9.439053424512732 2 98.6 2.0241352590092472 2 8.5758679660798851 3.3736528054038759 2 27.244025421587196 9.7350735821180727 2 69.277788625875019 11.475770798884954 2 75.736166972307956 4.4277691809002571 2 93.959578744527988 2.4650725575365144 2 96.663683164259368 1.4 2 1.4 4.9316067409235362 2 38.347790363498845 9.861977544101542 2 72.488779563781364 6.461571925365531 2 80.225059665287731 2.2127259671885597 2 93.615291944469945 1.4 2 12.103386327393062 2.4031024033543673 2 21.337466464745649 1.4 2 29.656314476182743 1.4 2 77.961239951458296 1.4 2 81.507769554814857 1.4 2 92.350422190531361 3.7514126454871155 2 2.9215211702860735 1.4 2 13.737039216301961 9.2605126208742465 2 34.78780501449998 1.4 2 40.26224043731245 6.231927434573401 2 66.058911422404378 4.6892521169765526 2 68.874435438699635 3.25758519367827 2 83.825415461125615 1.4 2 87.450620220294141 4.6584836804770875 2 10.436655506207739 8.1822385079527926 2 15.036548069538922 1.4 2 32.255446402792458 5.9751431141399136 2 74.888982807292962 6.9970488429954711 2 81.644892699520142 11.608647797508677 2 92.287278044047113 6.7616131946218418 2 6.773843251598004 3.4887949137772898 2 28.841237770078102 3.6947054078641175 2 63.166192887291608 1.4 2 65.426076849957411 1.4 2 73.206044306005737 1.4 2 84.340332299090548 1.4 2 87.134947344356505 1.4 2 7.0582611264396267 1.4 2 26.153518550120946 4.4792410344618308 2 31.142087003282612 5.5820566053994725 2 40.493785292710349 4.8002277344704991 2 75.535090753468012 2.1831995301827964 2 82.613467622232463 4.7932918077075062 2 97.638549421305498 9.1010767842596803 2 4.1979969233061913 2.5196161828791883 2 16.447688925775797 7.9605335510347386 2 37.153999432148282 3.4673996739422139 2 39.075854385668634 1.4 2 68.20223895707764 7.0723641914150521 2 85.828779858383214 6.2281599371852687 2 83.758066190014773 8.3140376724322653 2 10.066039122303422 4.6254203130120084 2 23.934213070649704 1.4 2 28.812480359700142 5.4953779726244516 2 70.474866997774015 5.5496267686892615 2 76.880765662509688 5.2169089649138911 2 94.678314524129547 3.8013094720801761 2 98.6 3.7128119140113842 2 2.3206175258246531 8.1180458643109592 2 25.651211939487453 1.4 2 37.668137941465723 6.2209961682384227 2 62.9261093858807 2.6098345565739836 2 69.863254799777337 1.4 2 83.672942029272349 3.3350480177842385 2 92.968710562696018 1.4 2 98.6 5.0956856600812586 2 11.409173312228853 1.4 2 27.700307534123183 2.3805736122032655 2 76.686535879255956 1.4 2 79.992363498879598 3.8068563526050383 2 89.146521210828169 5.1652512769290997 2 3.0675703091240689 2.2787279747998599 2 35.152410220366946 1.4 2 66.796275351551984 1.4 2 87.406583549299043 1.4 2 86.161260398728146 10.211780057869982 2 6.7522291802812324 7.9920857201522022 2 31.818697450744381 7.8238040040343435 2 44.552192047804233 1.4 2 75.474273812727944 9.6183309291675521 2 78.81069858037786 6.3913378821022713 2 92.64949353943851 4.6538274226340723 2 4.7220410542255458 5.4251749316488995 2 16.248184419702667 5.4838689938595708 2 35.311786619431075 4.9465238308566741 2 68.555422694671236 2.5160503294627898 2 81.737528000474725 5.9582701549203136 2 89.242622781405245 1.4 2 5.779070684833675 2.656072199910593 2 28.114447655475246 1.4 2 74.060451966044695 3.382269202281305 2 77.832858490311537 4.9300714140881752 2 90.085441804265557 7.5344494242310187 2 4.5468171202857395 1.4 2 37.897522982829827 3.5999600108204013 2 70.992709779489459 3.0467250831797048 2 85.508870103735063 2.0135703990509191 2 85.93391180981223 8.9678174991617308 2 9.2583532484220683 3.7928201758329294 2 25.33870621631797 6.5337546343661197 2 70.418762580979092 9.2201819641037517 2 76.524582590317394 4.3028958981835599 2 94.952367115224988 1.4 2 95.295918009176333 1.4 2 1.4 6.7050651498088731 2 37.401361095273906 7.2733544376093482 2 72.081967715736909 4.9034760918356151 2 80.948861100285313 2.727062988084922 2 93.097703942421788 2.956316868384337 2 14.659067515213257 1.4 2 31.083750555164755 1.4 2 78.250345039917136 1.4 2 78.55093982559697 1.4 2 90.380517140081921 3.5696798721213416 2 1.4 2.3070403179659436 2 13.257603300550006 4.7394733166908107 2 20.108933019940949 3.7990740545074959 2 34.428103547749814 1.4 2 66.810312383852377 3.9614175750969771 2 67.545920454719038 3.751826060327438 2 85.270513842718245 1.4 2 88.548160144229172 5.7174940996709074 2 7.8192699015358249 9.3977110892819748 2 32.997196198926687 5.129722839679749 2 74.329558130172614 5.9278728384382537 2 78.911074989522717 10.269279554360436 2 93.294505440508644 7.118868750104256 2 7.0264623236463164 6.0463006228853953 2 32.066420924355214 5.0166730928223471 2 72.265998052162033 1.4 2 84.40854029663501 3.2155958010956858 2 90.491180691641887 1.4 2 8.3771191719624269 1.4 2 25.590877544019211 3.64776139622158 2 27.968521492991517 7.3144160836998884 2 74.166494792190647 1.4 2 80.514102163445216 4.4172674729384651 2 94.822068684007405 8.3838971747477125 2 5.9759482190882842 3.3432649789565034 2 38.051970162365151 2.6453134776404004 2 44.491203082315991 4.5430147309522733 2 69.088569616294393 7.5656261937371498 2 86.712768083488101 6.5804849880710652 2 84.560633722041615 5.0821010349798543 2 8.8775273648191426 6.0458271805289581 2 18.408509401251017 2.5454717840738765 2 25.049659208267109 4.6338013053536944 2 73.931169961159398 7.8730172476184572 2 77.290633345118849 7.5893163136191291 2 95.41200303324112 4.7098683769856873 2 97.573080726585204 5.6449790405559979 2 2.4974872452557104 6.2682341178859824 2 37.934871463927635 5.2400436352256268 2 72.982572923795914 3.0312896237772038 2 82.342416322826153 2.3785123406422333 2 90.24695823269596 2.2823294153647602 2 98.6 3.1787860854513585 2 9.8674769971255163 1.9890189268487677 2 28.886728247385413 1.4 2 75.779740811029882 1.4 2 80.877998394551511 5.2702526391401561 2 90.912537877973023 5.5345172113357215 2 2.1509570501553843 1.4 2 32.918792321499318 1.4 2 67.117758204474825 1.4 2 86.2433102225352 1.4 2 87.569957706626454 7.1096567581799519 2 6.515658033059661 6.8924995793901056 2 14.330896943617976 3.2985963927218962 2 33.212635313280558 9.1491296544492755 2 74.547037591411794 11.287277109908027 2 78.360584844431585 8.1504851476353473 2 93.477560628683491 6.0918031943749167 2 3.6092261710204236 7.9606873318598694 2 34.220877185793441 3.0273891267008151 2 63.893143274718845 1.4 2 70.174272407907623 1.4 2 82.762102965665548 8.3445724324288193 2 89.27113666583017 2.7053609929479667 2 6.3591847624533342 1.4 2 27.202635284640671 2.9630889055895588 2 74.490228552450702 5.1410249691174927 2 80.682787254569575 3.5254017912284055 2 91.575617202873261 8.7106691242679535 2 4.1778623992150736 1.4 2 37.314745323904035 1.4 2 70.301392759633899 3.5111112141308429 2 88.324414831296878 3.1115386648680725 2 83.831660616525355 11.871780804557913 2 98.6 1.4 2 9.4556486029277451 3.0037861481228321 2 29.376055734931118 10.194185387006598 2 61.614849657577643 4.4070906749251506 2 68.428921944262527 9.8621724353907219 2 75.665756768130123 3.2329821214311174 2 93.930734987957976 1.4 2 97.600217344934237 1.4 2 1.4 3.9466384088537612 2 36.710992475642506 9.6985588950087624 2 72.918150323606838 4.5277686214737933 2 81.233441390804074 1.4 2 94.940706129399672 3.2307927475385583 2 11.212203345530822 3.9897713799343322 2 31.839684702533102 1.4 2 78.99613839299883 2.424182595432153 2 79.730282949821571 1.4 2 91.652487998667482 3.8716395788890474 2 1.4 1.4 2 12.748736988442827 7.1935849548496309 2 36.243319601731422 1.4 2 66.976831867170944 4.8680021419317479 2 69.542342727283781 3.3660246422893723 2 81.787165313614196 1.4 2 88.043310663005599 5.0981980602708203 2 11.925919594510098 9.6011740896817415 2 14.194775509413356 2.1568916591287768 2 33.29824181616894 6.5073246847924509 2 75.874490064514191 7.0748756388460583 2 80.003532099214837 11.272827567028028 2 91.863478592317293 5.8757974036302825 2 7.25739412472194 2.907897397677496 2 31.845926770235039 3.3874193860142121 2 65.00888407949094 1.4735128300715628 2 72.636345308842991 2.3247454661385585 2 84.657121195571506 1.4 2 87.678308515780145 2.8042127962239092 2 8.7217089981494578 1.4 2 26.489294002803049 3.1176810765178868 2 28.560312775471189 4.6493612266898596 2 39.6761061192081 4.4161960327416567 2 61.393120991160089 1.7954364213980047 2 73.830291272458254 1.4 2 84.067058166016579 6.6455417362425928 2 98.6 8.2025753697752535 2 3.5102438432699636 2.9313430469966368 2 36.188987402785592 3.5318734767686562 2 40.59437487703952 1.9162655620322362 2 62.223903189612948 7.0424633852269967 2 68.922393783749243 4.9362963897456726 2 85.129235633742724 3.3964771325308241 2 85.359396724724391 8.1326491895163908 2 9.683377817834165 5.6915641806137218 2 22.807731714124589 1.4 2 26.775074296223952 6.6671076384807426 2 71.644008166396361 5.9798155013132277 2 77.293682406003512 5.8597916386074491 2 96.28610178068287 2.2151982786209095 2 98.6 1.4 2 1.4 10.100329948487017 2 25.408493477504756 1.4435628977050865 2 37.393179481271652 4.5371778639636151 2 71.752793481576234 1.7701063488718605 2 84.173609590179666 3.8695060294910735 2 91.710819632212718 1.4 2 98.066183162938813 6.638362750711952 2 9.0707900641881984 1.4 2 30.35604005329354 1.4 2 76.993858480448921 1.4 2 78.110818814271624 3.5232840951071012 2 91.602716313755934 2.6703294673414124 2 2.9470941060840379 4.5902382769899459 2 17