<?xml version="1.0" ?>
<VTKFile byte_order="LittleEndian" type="UnstructuredGrid" version="0.1">
<UnstructuredGrid>
<Piece NumberOfCells="0" NumberOfPoints="41">
<Points>
<DataArray NumberOfComponents="3" format="ascii" type="Float32">7.8362599676936968 1.041631650146019 2 33.056800186387981 1 2 76.26487941171456 1.5982373257516878 2 78.259408109492028 1 2 87.929138906417549 3.7803644254246236 2 2.0083242108369057 1.250944102238029 2 35.008410042981566 1 2 70.538500234132002 1 2 83.767006668485735 1 2 85.940060272794611 4.2527434278053251 2 8.7271309422200822 4.9201876071115915 2 31.392301981002078 4.3597981194876221 2 74.879882739012487 4.1809222875512893 2 76.886974990183603 5.2327025525333219 2 89.462919068327125 2.6716174043521002 2 5.4449502322868071 4.1600189413252746 2 34.410532417507333 3.9759471327478999 2 72.430977898307304 1 2 82.040593310350431 1.8200479833848828 2 86.418151891074316 1.3902261179119864 2 5.911272403596791 1.548820969257438 2 31.404164182629909 2.1427718807970826 2 74.544000089571526 1 2 79.304774453306266 2.7495842350040345 2 89.706425722978835 4.6650875325857415 2 3.9821837821107304 1 2 35.992191125437827 2.7441294151476203 2 71.506527142623284 2.7325627695062535 2 84.879946451258832 2.6841097646572831 2 84.933645862547991 5.9576867437946088 2 8.7163853304001737 2.9315343757317991 2 29.693886682336338 3.3849207216282706 2 72.685521885359506 4.5339428019495713 2 77.377299953488802 3.3318317729048119 2 90.597084529879908 1 2 92.556236761241365 1 2 3.8389268147197835 2.980609861538952 2 35.685729901813652 5.5167673416327663 2 73.498443844090872 2.7639111563591197 2 80.157732996325763 1 2 88.368789354136496 1 2 </DataArray>
</Points>
<Cells>
<DataArray Name="connectivity" format="ascii" type="Int32">0</DataArray>
<DataArray Name="offsets" format="ascii" type="Int32">0</DataArray>
<DataArray Name="types" format="ascii" type="UInt8">1</DataArray>
</Cells>
<PointData>
<DataArray Name="Points" NumberOfComponents="3" format="ascii" type="Float32">7.8362599676936968 1.041631650146019 2 33.056800186387981 1 2 76.26487941171456 1.5982373257516878 2 78.259408109492028 1 2 87.929138906417549 3.7803644254246236 2 2.0083242108369057 1.250944102238029 2 35.008410042981566 1 2 70.538500234132002 1 2 83.767006668485735 1 2 85.940060272794611 4.2527434278053251 2 8.7271309422200822 4.9201876071115915 2 31.392301981002078 4.3597981194876221 2 74.879882739012487 4.1809222875512893 2 76.886974990183603 5.2327025525333219 2 89.462919068327125 2.6716174043521002 2 5.4449502322868071 4.1600189413252746 2 34.410532417507333 3.9759471327478999 2 72.430977898307304 1 2 82.040593310350431 1.8200479833848828 2 86.418151891074316 1.3902261179119864 2 5.911272403596791 1.548820969257438 2 31.404164182629909 2.1427718807970826 2 74.544000089571526 1 2 79.304774453306266 2.7495842350040345 2 89.706425722978835 4.6650875325857415 2 3.9821837821107304 1 2 35.992191125437827 2.7441294151476203 2 71.506527142623284 2.7325627695062535 2 84.879946451258832 2.6841097646572831 2 84.933645862547991 5.9576867437946088 2 8.7163853304001737 2.9315343757317991 2 29.693886682336338 3.3849207216282706 2 72.685521885359506 4.5339428019495713 2 77.377299953488802 3.3318317729048119 2 90.597084529879908 1 2 92.556236761241365 1 2 3.8389268147197835 2.980609861538952 2 35.685729901813652 5.5167673416327663 2 73.498443844090872 2.7639111563591197 2 80.157732996325763 1 2 88.368789354136496 1 2 </DataArray>
<DataArray Name="forces" NumberOfComponents="3" format="ascii" type="Float32">0.0 0.0 0.0 0.020562686379759207 -0.014772432018804082 0.0 -0.091805163430743492 -0.013081044272096477 0.0 0.06946268324289516 -0.023812713062794449 0.0 0.04749922779424167 -0.011549628597992294 0.0 -0.00054127165927586227 7.1941211148790192e-05 0.0 -0.024400262477816976 -0.046271378240405885 0.0 0.056879609446130033 -0.0098583954455750758 0.0 -0.040871201472334334 -0.067661009984533366 0.0 -0.039850586470434816 -0.00087568859029219827 0.0 -3.7904903195706534e-06 0.0043874252448476191 0.0 0.0 0.0 0.0 0.0 0.0 0.0 0.0 0.0 0.0 -0.041070175100418493 0.049288623538861494 0.0 0.0034662743508835671 0.0025979834446764501 0.0 -0.010177172537969311 0.0083841590222669057 0.0 -0.075172908934137944 -0.013556824765324521 0.0 0.055729435934369485 0.026747750147187433 0.0 -0.00048117399748251141 -0.00090498677184828308 0.0 0.010337741332162038 0.0030220985792672132 0.0 -0.015422554730145466 0.01739534526697311 0.0 0.093720115814617061 -0.049000524537628307 0.0 0.021600139973847469 -0.0060094475436353748 0.0 0.0 0.0 0.0 -0.0081929163105376613 -0.02467598556869155 0.0 0.034991806660971271 0.037887219218138979 0.0 0.0 0.0 0.0 0.040568001961274816 0.068383987501295609 0.0 -0.0076486413238068523 0.012425317188284492 0.0 -0.011690416169377412 0.010909030390113261 0.0 0.031870653408196808 0.034451103926800002 0.0 0.0 0.0 0.0 0.00074234021400085975 0.042903204878526301 0.0 0.027650866715200048 -0.045151734929885126 0.0 -0.0090326675895386586 -0.017631620622459945 0.0 -0.0050698277132320817 0.018983962333599096 0.0 0.0 0.0 0.0 -0.018547206880479113 0.062557349302952828 0.0 -0.057204454946551492 -0.026099467332314569 0.0 -0.0059430826723060421 -0.012292865942910616 0.0 </DataArray>
<DataArray Name="radii" format="ascii" type="Float32">1 1 1 1 1 1 1 1 1 1 1 1 1 1 1 1 1 1 1 1 1 1 1 1 1 1 1 1 1 1 1 1 1 1 1 1 1 1 1 1 1 </DataArray>
</PointData>
<CellData/>
</Piece>
</UnstructuredGrid>
</VTKFile>
