<?xml version="1.0" ?>
<VTKFile byte_order="LittleEndian" type="UnstructuredGrid" version="0.1">
<UnstructuredGrid>
<Piece NumberOfCells="0" NumberOfPoints="74">
<Points>
<DataArray NumberOfComponents="3" format="ascii" type="Float32">23.941542933426334 1.5999999999999999 2 44.306858917779877 1.5999999999999999 2 52.698175447856322 4.4928490338624485 2 60.866253258411767 4.264130356451787 2 17.912922072082484 6.6606049142900012 2 42.979135997076135 2.8025344668565975 2 44.310570206896884 8.3398944820579715 2 53.529249693060841 2.8995791125410291 2 63.563190781978491 7.2501104297895296 2 16.397828099546786 4.632232046669051 2 46.829388253186437 3.4510871936827723 2 58.341089692439709 6.788855602483391 2 57.339613801287079 1.5999999999999999 2 15.193266588048797 6.9147101121904448 2 22.521829685272923 8.7263031989544224 2 46.808883063130232 7.535743377558302 2 54.09488359898365 10.042642845573234 2 63.897730488279898 1.5999999999999999 2 20.965362819328213 1.5999999999999999 2 42.067989281772441 1.5999999999999999 2 53.699198269253223 1.5999999999999999 2 61.284089046171239 1.5999999999999999 2 13.791195212781705 4.8621300284145059 2 19.563799686497017 8.989193564973224 2 44.68658486015007 3.7174842458705628 2 48.746050045697466 1.9999097361141009 2 58.945989889962533 9.3695986270795473 2 65.761051028166847 6.6866022170273158 2 17.334635902953405 2.8465253249534443 2 48.035739618069904 4.9158352282615034 2 56.557665145703965 5.4499133011502403 2 59.083988357367915 4.7110368153648121 2 16.168916903564739 1.5999999999999999 2 21.654113209138451 3.9742098486047341 2 39.951085604514887 6.0252627733754984 2 51.147081827621889 3.1838801920706952 2 49.297180078197158 7.0575314818543102 2 65.000414469050909 4.5401184357130182 2 22.542894119296776 1.5999999999999999 2 45.802032589153377 1.5999999999999999 2 54.582289721862416 5.4989705277008936 2 62.643064840721763 5.1395306051751355 2 19.106502037820764 4.4298725510919539 2 43.388708189181564 5.7885026032234572 2 41.522992763532841 7.8499949281540333 2 51.744728382610738 1.5999999999999999 2 62.016472162738104 9.4526930801892366 2 14.804413952486989 2.8966742749801693 2 47.406331018839381 1.5999999999999999 2 56.138333115127026 8.1050191299167018 2 55.688359178785696 1.5999999999999999 2 23.207985183844176 6.1402532992614969 2 48.361728121332625 9.8026674328636467 2 53.48413968877292 7.3471978146522945 2 62.053474823300817 2.399266076725576 2 19.807592029297819 2.2756953780193334 2 55.358291046101542 3.3923934633195585 2 59.512728596253439 1.5999999999999999 2 16.538238157449019 9.2885615512408428 2 45.693390372530985 5.592836399568113 2 50.006330021997869 1.5999999999999999 2 60.778902307780108 6.9454523251167419 2 66.423000777178359 9.2452797020716861 2 98.4 1.5999999999999999 2 18.374763079100621 1.5999999999999999 2 49.785155290683974 4.3310515541627854 2 57.208593458733617 3.5343307713788437 2 58.998865989215751 2.6552343408113295 2 13.976581842862581 1.5999999999999999 2 20.649389837077972 6.3685264939404318 2 41.722906681661655 4.5918711318790173 2 51.438863687820024 6.086542015274687 2 51.256393628253448 9.0122591998596029 2 63.693952396495433 3.2142714553008407 2 </DataArray>
</Points>
<Cells>
<DataArray Name="connectivity" format="ascii" type="Int32">0</DataArray>
<DataArray Name="offsets" format="ascii" type="Int32">0</DataArray>
<DataArray Name="types" format="ascii" type="UInt8">1</DataArray>
</Cells>
<PointData>
<DataArray Name="Points" NumberOfComponents="3" format="ascii" type="Float32">23.941542933426334 1.5999999999999999 2 44.306858917779877 1.5999999999999999 2 52.698175447856322 4.4928490338624485 2 60.866253258411767 4.264130356451787 2 17.912922072082484 6.6606049142900012 2 42.979135997076135 2.8025344668565975 2 44.310570206896884 8.3398944820579715 2 53.529249693060841 2.8995791125410291 2 63.563190781978491 7.2501104297895296 2 16.397828099546786 4.632232046669051 2 46.829388253186437 3.4510871936827723 2 58.341089692439709 6.788855602483391 2 57.339613801287079 1.5999999999999999 2 15.193266588048797 6.9147101121904448 2 22.521829685272923 8.7263031989544224 2 46.808883063130232 7.535743377558302 2 54.09488359898365 10.042642845573234 2 63.897730488279898 1.5999999999999999 2 20.965362819328213 1.5999999999999999 2 42.067989281772441 1.5999999999999999 2 53.699198269253223 1.5999999999999999 2 61.284089046171239 1.5999999999999999 2 13.791195212781705 4.8621300284145059 2 19.563799686497017 8.989193564973224 2 44.68658486015007 3.7174842458705628 2 48.746050045697466 1.9999097361141009 2 58.945989889962533 9.3695986270795473 2 65.761051028166847 6.6866022170273158 2 17.334635902953405 2.8465253249534443 2 48.035739618069904 4.9158352282615034 2 56.557665145703965 5.4499133011502403 2 59.083988357367915 4.7110368153648121 2 16.168916903564739 1.5999999999999999 2 21.654113209138451 3.9742098486047341 2 39.951085604514887 6.0252627733754984 2 51.147081827621889 3.1838801920706952 2 49.297180078197158 7.0575314818543102 2 65.000414469050909 4.5401184357130182 2 22.542894119296776 1.5999999999999999 2 45.802032589153377 1.5999999999999999 2 54.582289721862416 5.4989705277008936 2 62.643064840721763 5.1395306051751355 2 19.106502037820764 4.4298725510919539 2 43.388708189181564 5.7885026032234572 2 41.522992763532841 7.8499949281540333 2 51.744728382610738 1.5999999999999999 2 62.016472162738104 9.4526930801892366 2 14.804413952486989 2.8966742749801693 2 47.406331018839381 1.5999999999999999 2 56.138333115127026 8.1050191299167018 2 55.688359178785696 1.5999999999999999 2 23.207985183844176 6.1402532992614969 2 48.361728121332625 9.8026674328636467 2 53.48413968877292 7.3471978146522945 2 62.053474823300817 2.399266076725576 2 19.807592029297819 2.2756953780193334 2 55.358291046101542 3.3923934633195585 2 59.512728596253439 1.5999999999999999 2 16.538238157449019 9.2885615512408428 2 45.693390372530985 5.592836399568113 2 50.006330021997869 1.5999999999999999 2 60.778902307780108 6.9454523251167419 2 66.423000777178359 9.2452797020716861 2 98.4 1.5999999999999999 2 18.374763079100621 1.5999999999999999 2 49.785155290683974 4.3310515541627854 2 57.208593458733617 3.5343307713788437 2 58.998865989215751 2.6552343408113295 2 13.976581842862581 1.5999999999999999 2 20.649389837077972 6.3685264939404318 2 41.722906681661655 4.5918711318790173 2 51.438863687820024 6.086542015274687 2 51.256393628253448 9.0122591998596029 2 63.693952396495433 3.2142714553008407 2 </DataArray>
<DataArray Name="forces" NumberOfComponents="3" format="ascii" type="Float32">0.16961938800589227 -1.1872702562006281 0.0 -0.032077417510224526 -2.0273805963150089 0.0 -0.041496246746819732 0.76579797615282208 0.0 0.11571512568864903 0.68627120143085052 0.0 0.011184296185569542 0.64262988732461768 0.0 -0.075604592711861374 0.68101158837426645 0.0 -0.07641792470741364 0.81287524507360698 0.0 0.012768640183913549 0.75931197109129434 0.0 0.085229904548551394 0.79842198443159162 0.0 0.019448860988258931 0.72630217150118281 0.0 0.022798109896377344 0.83923841237302621 0.0 0.10603504670103903 0.60854813296575849 0.0 -0.039695043871765923 -2.2801832943122351 0.0 -0.039049518597069344 0.63216775226021571 0.0 0.014855794743812531 0.67838063796779391 0.0 -0.017444229891169005 0.69202456681148494 0.0 -0.011989017973836058 0.75238885560869651 0.0 0.15093322231142386 -2.2737162846832488 0.0 0.15726872099993727 -1.6664947904838407 0.0 -0.055943640526344693 -2.1500651393167693 0.0 -0.022420208041562417 -2.6653064283952683 0.0 -0.14434718261669227 -2.4921597953278756 0.0 -0.063707951528993556 0.70295508566379039 0.0 -0.0098363364533842201 0.62163188755927257 0.0 -0.11728639554802935 0.85687038313725394 0.0 -0.066513205665627739 -0.26821573598238813 0.0 0.0088240730720294536 0.71177187617771798 0.0 0.015332204287850981 0.65025862227430542 0.0 -0.03496727522136267 0.83020727842234932 0.0 -0.0098861589284104934 0.54675131961709966 0.0 0.017287726510455126 0.86187675977568112 0.0 0.19237353403193691 0.6411733181123116 0.0 -0.063088050820887087 -2.1556302936177327 0.0 0.0037317979382241462 0.64754008309975342 0.0 -0.039540545538201299 0.78273350186860302 0.0 -0.11772832717558196 0.90465480190757541 0.0 -0.039091314689321477 0.68140497174544934 0.0 0.084468018337577111 0.73112902635796362 0.0 0.12336726546906351 -0.99304306787569052 0.0 -0.14433025018051926 -1.755523995971437 0.0 -0.012182395849277664 0.75121697335064308 0.0 0.031351697146306534 0.76492225425605564 0.0 0.13710443144406148 0.63143070203509499 0.0 -0.21120074571597336 0.80181175387743031 0.0 -0.13051804930984268 0.84202914679092689 0.0 0.064780794491623439 -2.173958576101382 0.0 0.015179050253768672 0.78288163135433531 0.0 -0.073678138212618149 0.79652826847457348 0.0 -0.26255648018197841 -1.7946610952105468 0.0 0.05301055259558779 0.78040430260399074 0.0 0.037609409095880897 -2.2917508251006287 0.0 0.05662998059825386 0.70424515965049739 0.0 -0.034410269895207873 0.71145038874235456 0.0 0.022766490147784868 0.7566708804196135 0.0 0.21082867154869267 0.33964042413689322 0.0 -0.086062067853823976 0.26743688873259391 0.0 0.0082536445311494067 0.77685013369227285 0.0 0.032352259376146608 -2.3552779271335953 0.0 -0.036939321709988648 0.6349135611965504 0.0 -0.13007527217967596 0.82607168065977565 0.0 0.22808354764987682 -2.1068930566296582 0.0 0.064202144215429996 0.76981021029096586 0.0 -0.091088029194248257 0.70463114894716006 0.0 1.2218936748340226 -1.6664443218768499 0.0 -0.12688223713260571 -2.1807632818251026 0.0 -0.20827229718725171 0.57325488974081107 0.0 0.022976652014583321 0.9544996073516312 0.0 -0.11724127856963462 0.63197884780324898 0.0 -0.023121225225952613 -1.9914775858346023 0.0 0.05646718962639985 0.64147757647757553 0.0 -0.092766151805189656 0.69046564252036458 0.0 -0.044783038867207796 0.73473864705135872 0.0 -0.022494674657704612 0.71009857874746096 0.0 -0.072638311888143625 0.85411426699620174 0.0 </DataArray>
<DataArray Name="radii" format="ascii" type="Float32">1.5999999999999999 1.5999999999999999 1.5999999999999999 1.5999999999999999 1.5999999999999999 1.5999999999999999 1.5999999999999999 1.5999999999999999 1.5999999999999999 1.5999999999999999 1.5999999999999999 1.5999999999999999 1.5999999999999999 1.5999999999999999 1.5999999999999999 1.5999999999999999 1.5999999999999999 1.5999999999999999 1.5999999999999999 1.5999999999999999 1.5999999999999999 1.5999999999999999 1.5999999999999999 1.5999999999999999 1.5999999999999999 1.5999999999999999 1.5999999999999999 1.5999999999999999 1.5999999999999999 1.5999999999999999 1.5999999999999999 1.5999999999999999 1.5999999999999999 1.5999999999999999 1.5999999999999999 1.5999999999999999 1.5999999999999999 1.5999999999999999 1.5999999999999999 1.5999999999999999 1.5999999999999999 1.5999999999999999 1.5999999999999999 1.5999999999999999 1.5999999999999999 1.5999999999999999 1.5999999999999999 1.5999999999999999 1.5999999999999999 1.5999999999999999 1.5999999999999999 1.5999999999999999 1.5999999999999999 1.5999999999999999 1.5999999999999999 1.5999999999999999 1.5999999999999999 1.5999999999999999 1.5999999999999999 1.5999999999999999 1.5999999999999999 1.5999999999999999 1.5999999999999999 1.5999999999999999 1.5999999999999999 1.5999999999999999 1.5999999999999999 1.5999999999999999 1.5999999999999999 1.5999999999999999 1.5999999999999999 1.5999999999999999 1.5999999999999999 1.5999999999999999 </DataArray>
</PointData>
<CellData/>
</Piece>
</UnstructuredGrid>
</VTKFile>
