<?xml version="1.0" ?>
<VTKFile byte_order="LittleEndian" type="UnstructuredGrid" version="0.1">
<UnstructuredGrid>
<Piece NumberOfCells="0" NumberOfPoints="10">
<Points>
<DataArray NumberOfComponents="3" format="ascii" type="Float32">7.2864216952306489 1.2 2 32.549542448997535 1.6117810379541222 2 74.179998012417215 2.7561805393544985 2 79.295029679465955 1.3565439922793918 2 87.241834981826088 3.2915845756096616 2 5.4138240431409272 2.7008427622979427 2 34.913669654469764 1.2 2 72.352663398405085 1.2 2 81.689570085295799 1.2 2 86.035839496330155 1.2 2 </DataArray>
</Points>
<Cells>
<DataArray Name="connectivity" format="ascii" type="Int32">0</DataArray>
<DataArray Name="offsets" format="ascii" type="Int32">0</DataArray>
<DataArray Name="types" format="ascii" type="UInt8">1</DataArray>
</Cells>
<PointData>
<DataArray Name="Points" NumberOfComponents="3" format="ascii" type="Float32">7.2864216952306489 1.2 2 32.549542448997535 1.6117810379541222 2 74.179998012417215 2.7561805393544985 2 79.295029679465955 1.3565439922793918 2 87.241834981826088 3.2915845756096616 2 5.4138240431409272 2.7008427622979427 2 34.913669654469764 1.2 2 72.352663398405085 1.2 2 81.689570085295799 1.2 2 86.035839496330155 1.2 2 </DataArray>
<DataArray Name="forces" NumberOfComponents="3" format="ascii" type="Float32">0.0047341761991596121 -0.0038687995725118912 0.0 -0.0011863678719385719 0.00021775577065268655 0.0 0.0050424184020045398 0.0043782810951151566 0.0 -0.00038888186037842843 2.8959253349747345e-05 0.0 0.010946600388542161 0.019536876118318374 0.0 -0.0047341761991596121 0.0038687995725118912 0.0 0.0011863678719385719 -0.00021775577065268655 0.0 -0.0050424184020045398 -0.0043782810951151566 0.0 0.00038888186037842843 -2.8959253349747345e-05 0.0 -0.010946600388542161 -0.019536876118318374 0.0 </DataArray>
<DataArray Name="radii" format="ascii" type="Float32">1.2 1.2 1.2 1.2 1.2 1.2 1.2 1.2 1.2 1.2 </DataArray>
</PointData>
<CellData/>
</Piece>
</UnstructuredGrid>
</VTKFile>
