<?xml version="1.0" ?>
<VTKFile byte_order="LittleEndian" type="UnstructuredGrid" version="0.1">
<UnstructuredGrid>
<Piece NumberOfCells="0" NumberOfPoints="51">
<Points>
<DataArray NumberOfComponents="3" format="ascii" type="Float32">22.584142409138099 1.4 2 45.362131020637271 1.4 2 53.626263644413598 3.826382325057256 2 60.887756347431697 3.824587030020925 2 11.932364546679484 5.8795007602459393 2 18.053780656821395 5.7964036992306367 2 43.875909411492039 3.9916535170233818 2 45.34553130196133 6.3559590157201686 2 52.452049662038185 1.4 2 62.051536483502062 6.2892047366569077 2 67.556269953778155 6.033383491495365 2 98.6 4.3077519725651499 2 12.719959906590436 1.4 2 16.444194867615597 3.728735721587416 2 23.801985491683904 3.8524756569704532 2 47.707669281823634 1.4 2 56.544939253056029 6.4779851438373681 2 57.246465390620244 1.4 2 15.16125340030203 6.1652908407014735 2 20.742841843982038 6.4116365171745304 2 48.142557908057306 6.4622745592081143 2 53.756722697898923 6.5354796982505992 2 62.121197068132687 1.4 2 64.561711961991818 1.4 2 20.075440560096141 1.4 2 26.470192099123302 3.8023899701720492 2 43.055835072625889 1.4 2 54.840835803824291 1.4 2 59.677223825708559 1.4 2 13.751300683258375 3.8140912973742842 2 18.823278715147946 8.4161605216141382 2 40.746380460736468 1.4 2 46.395773144028063 3.8388540126541235 2 50.074664997626854 1.4 2 59.311391947649931 6.3619247825297709 2 64.783949685901774 6.2736270631534659 2 98.6 1.4 2 17.655595336944053 1.4 2 25.104813796212124 1.4 2 48.839116260000942 3.8369720679755388 2 56.018519673770356 3.8212353840423376 2 58.433553849530362 3.8077131084386413 2 15.154668913225997 1.4 2 21.110477710408215 3.7600133847724728 2 27.626830651814611 1.4 2 41.321996758258983 4.0370183558601243 2 51.239907001792204 3.8314359865310412 2 50.956919260854704 6.5313307037070052 2 63.38687632760017 3.8550605860394316 2 65.910825516462836 3.8080720243246486 2 96.141104305202205 3.6154350920974143 2 </DataArray>
</Points>
<Cells>
<DataArray Name="connectivity" format="ascii" type="Int32">0</DataArray>
<DataArray Name="offsets" format="ascii" type="Int32">0</DataArray>
<DataArray Name="types" format="ascii" type="UInt8">1</DataArray>
</Cells>
<PointData>
<DataArray Name="Points" NumberOfComponents="3" format="ascii" type="Float32">22.584142409138099 1.4 2 45.362131020637271 1.4 2 53.626263644413598 3.826382325057256 2 60.887756347431697 3.824587030020925 2 11.932364546679484 5.8795007602459393 2 18.053780656821395 5.7964036992306367 2 43.875909411492039 3.9916535170233818 2 45.34553130196133 6.3559590157201686 2 52.452049662038185 1.4 2 62.051536483502062 6.2892047366569077 2 67.556269953778155 6.033383491495365 2 98.6 4.3077519725651499 2 12.719959906590436 1.4 2 16.444194867615597 3.728735721587416 2 23.801985491683904 3.8524756569704532 2 47.707669281823634 1.4 2 56.544939253056029 6.4779851438373681 2 57.246465390620244 1.4 2 15.16125340030203 6.1652908407014735 2 20.742841843982038 6.4116365171745304 2 48.142557908057306 6.4622745592081143 2 53.756722697898923 6.5354796982505992 2 62.121197068132687 1.4 2 64.561711961991818 1.4 2 20.075440560096141 1.4 2 26.470192099123302 3.8023899701720492 2 43.055835072625889 1.4 2 54.840835803824291 1.4 2 59.677223825708559 1.4 2 13.751300683258375 3.8140912973742842 2 18.823278715147946 8.4161605216141382 2 40.746380460736468 1.4 2 46.395773144028063 3.8388540126541235 2 50.074664997626854 1.4 2 59.311391947649931 6.3619247825297709 2 64.783949685901774 6.2736270631534659 2 98.6 1.4 2 17.655595336944053 1.4 2 25.104813796212124 1.4 2 48.839116260000942 3.8369720679755388 2 56.018519673770356 3.8212353840423376 2 58.433553849530362 3.8077131084386413 2 15.154668913225997 1.4 2 21.110477710408215 3.7600133847724728 2 27.626830651814611 1.4 2 41.321996758258983 4.0370183558601243 2 51.239907001792204 3.8314359865310412 2 50.956919260854704 6.5313307037070052 2 63.38687632760017 3.8550605860394316 2 65.910825516462836 3.8080720243246486 2 96.141104305202205 3.6154350920974143 2 </DataArray>
<DataArray Name="forces" NumberOfComponents="3" format="ascii" type="Float32">-0.0058128651420795343 -0.074757000825263695 0.0 -0.020983386223808846 -0.14156688529581907 0.0 0.0089440352166890169 0.084882145326512962 0.0 0.018124722436095919 0.084168618981684915 0.0 -0.019570974643754319 0.085000987796731292 0.0 0.050289365821626367 0.068801335649807713 0.0 -0.012745136081580483 0.076811951663252193 0.0 -0.02059775782937711 0.081688954198130798 0.0 0.0031365775634187923 -0.17106083565893776 0.0 0.012689222108739202 0.088389586089056144 0.0 0.02017518125503347 0.085907678249181732 0.0 0.23857203554980563 0.067912194628712258 0.0 0.008088172125879256 -0.18933158722829155 0.0 0.0028407640146891761 0.091115754406434837 0.0 -0.0074211278111358248 0.082264054055134275 0.0 -0.012026933073337721 -0.13146898434357426 0.0 -0.0022704950403239464 0.092643093990420949 0.0 0.012910284099060296 -0.18252462921466378 0.0 0.010073204134650456 0.092498937725776761 0.0 0.040971489834850945 0.11681046003019616 0.0 -0.020721862601644846 0.08242655021162075 0.0 -0.0075317175719799602 0.089541219653766033 0.0 0.015470727150798929 -0.10696136948965686 0.0 0.013653033345071452 -0.10843452391533979 0.0 -0.00021683533581527692 -0.20715892529654403 0.0 -0.0070962241439722767 0.087038641173192918 0.0 -0.028746808573173022 -0.077793935479247886 0.0 0.0088363437256576902 -0.17691414520292253 0.0 0.014666378546222464 -0.16263774531254827 0.0 -0.0011635701448709634 0.092225273677885564 0.0 0.0020747555008533217 0.088361909299428831 0.0 -0.033659932999994473 -0.10119134939372296 0.0 -0.0091171040440850004 0.083731774556046995 0.0 -0.0039155358258814582 -0.15615642696481619 0.0 0.0048752528815823246 0.095659189249133941 0.0 0.017968488445575991 0.089717682482556377 0.0 0.21430240964238215 0.018034829787752799 0.0 -0.00021401153989752952 -0.15757648286672124 0.0 -0.0048980220725188817 -0.053735752028012729 0.0 -0.0038459098481868348 0.08361604475132435 0.0 0.014253189021863732 0.08518233486687099 0.0 0.01751446287103875 0.086414041012168638 0.0 0.0029406981896072382 -0.13402973920236463 0.0 -0.0097328097204886638 0.095417905984318208 0.0 -0.0077081187575127608 -0.203110085993533 0.0 -0.01770285487211682 0.078112264590806182 0.0 0.002526278965570403 0.084220508157112683 0.0 -0.010178546731014534 0.086258312843430482 0.0 0.017085729270601924 0.08771610169762796 0.0 0.015967488358332615 0.08671419611837887 0.0 -0.010623150815047017 0.083103751876165893 0.0 </DataArray>
<DataArray Name="radii" format="ascii" type="Float32">1.4 1.4 1.4 1.4 1.4 1.4 1.4 1.4 1.4 1.4 1.4 1.4 1.4 1.4 1.4 1.4 1.4 1.4 1.4 1.4 1.4 1.4 1.4 1.4 1.4 1.4 1.4 1.4 1.4 1.4 1.4 1.4 1.4 1.4 1.4 1.4 1.4 1.4 1.4 1.4 1.4 1.4 1.4 1.4 1.4 1.4 1.4 1.4 1.4 1.4 1.4 </DataArray>
</PointData>
<CellData/>
</Piece>
</UnstructuredGrid>
</VTKFile>
