<?xml version="1.0" ?>
<VTKFile byte_order="LittleEndian" type="UnstructuredGrid" version="0.1">
<UnstructuredGrid>
<Piece NumberOfCells="0" NumberOfPoints="90">
<Points>
<DataArray NumberOfComponents="3" format="ascii" type="Float32">23.423123397462813 1 2 44.543554022631241 1.8097182039226509 2 52.874752029371663 4.3306475787006669 2 60.159899591915817 3.9327007701207024 2 17.709840247473647 5.8248466419432914 2 43.566318725507564 3.5821334212097398 2 45.168210630851895 7.1464657508048681 2 52.825057205182098 2.5901589576413615 2 62.926969133725173 6.6203985335179478 2 99.0 5.4753431307557801 2 13.13452150279444 2.8583835603125567 2 16.408116065579712 4.3880861742481265 2 22.851855774840416 3.9691326107907989 2 47.181799074984127 2.7221465386115193 2 57.410870285849917 6.5067185606320459 2 57.54064098221474 1 2 16.009034948972214 6.8294410862501831 2 21.355232414328992 7.4897739226365951 2 47.13182783625961 6.8845267360329458 2 53.807846928738037 8.1368322094269558 2 62.996916455362857 1 2 64.855418082914767 1 2 20.605676985701734 1 2 42.888452240225803 1 2 53.835763431563237 1 2 61.151726716826076 1 2 14.412186910689687 4.3353464469154712 2 19.467454465345178 9.0414398710731252 2 40.095584438061486 3.3561949613620161 2 45.452789351570608 3.5039893083391274 2 48.991292573312961 2.6842171985663019 2 59.105897448738553 7.534967210334953 2 64.935361086947154 6.4353413235581494 2 99.0 2.4737119513805936 2 17.502714443042702 2.730280629683064 2 24.347407068104904 2.705725541004556 2 48.431472478265526 5.3171025788427864 2 56.588753778717766 4.6767461242455219 2 58.527278504450358 4.8204977351060974 2 16.493575338503046 1 2 20.951121355571839 3.946275625351054 2 40.672397962025627 5.1703974174267273 2 51.042239875987157 2.67642600398373 2 49.879177507722034 6.596815798530792 2 63.905014633224987 4.7274176329359543 2 66.610368629184919 4.3237063052666649 2 21.997598816972229 2.3346210947864723 2 46.182371577847093 1 2 54.761858183081152 4.7313427430473523 2 61.927615854407598 4.9006139436367624 2 18.952081058483895 4.3627222303114586 2 44.572852311674225 5.233526384964617 2 43.282303607538211 7.7825937341227469 2 51.883179930003941 1 2 61.187471028648005 7.5551514340620889 2 12.563837505272097 1 2 15.487345006021645 2.6598313273738774 2 48.132958075693388 1 2 55.729250164605631 7.5817561526760526 2 55.671465330608726 1 2 14.104487555104512 6.2828685138563367 2 22.566124921775781 5.938559076751277 2 48.638430020851381 8.1273642963737505 2 53.431181766700291 6.2519807977759898 2 61.652427097950188 2.8040227092700429 2 65.354876959569168 2.9023118000455628 2 19.553756813688047 2.563186426906702 2 41.899596141878348 2.6877502298453195 2 54.789759331553981 2.7603080746749367 2 59.35011099021429 1 2 12.537762364283532 5.0307023156616806 2 17.952948356353208 7.7646529007490646 2 41.080232791416854 1 2 46.484931510186236 4.9872768428324497 2 49.976375855483582 1 2 60.162973904691192 5.8375633776786646 2 66.068696429246515 8.0417456070297746 2 97.752384402541551 1 2 18.472803907827874 1 2 25.347496701583658 1 2 50.055865189571591 4.4278055586201601 2 56.648232301202611 2.7416946174406851 2 58.602935297936654 2.788523483704445 2 14.535351573251571 1 2 20.288326627621824 5.838425652081094 2 27.339530042878494 1 2 42.638691819989774 5.2616842943743807 2 51.507002394251117 5.6204265805929357 2 51.875893939944717 7.5406163265661235 2 63.503915650438131 2.8533887001274469 2 </DataArray>
</Points>
<Cells>
<DataArray Name="connectivity" format="ascii" type="Int32">0</DataArray>
<DataArray Name="offsets" format="ascii" type="Int32">0</DataArray>
<DataArray Name="types" format="ascii" type="UInt8">1</DataArray>
</Cells>
<PointData>
<DataArray Name="Points" NumberOfComponents="3" format="ascii" type="Float32">23.423123397462813 1 2 44.543554022631241 1.8097182039226509 2 52.874752029371663 4.3306475787006669 2 60.159899591915817 3.9327007701207024 2 17.709840247473647 5.8248466419432914 2 43.566318725507564 3.5821334212097398 2 45.168210630851895 7.1464657508048681 2 52.825057205182098 2.5901589576413615 2 62.926969133725173 6.6203985335179478 2 99.0 5.4753431307557801 2 13.13452150279444 2.8583835603125567 2 16.408116065579712 4.3880861742481265 2 22.851855774840416 3.9691326107907989 2 47.181799074984127 2.7221465386115193 2 57.410870285849917 6.5067185606320459 2 57.54064098221474 1 2 16.009034948972214 6.8294410862501831 2 21.355232414328992 7.4897739226365951 2 47.13182783625961 6.8845267360329458 2 53.807846928738037 8.1368322094269558 2 62.996916455362857 1 2 64.855418082914767 1 2 20.605676985701734 1 2 42.888452240225803 1 2 53.835763431563237 1 2 61.151726716826076 1 2 14.412186910689687 4.3353464469154712 2 19.467454465345178 9.0414398710731252 2 40.095584438061486 3.3561949613620161 2 45.452789351570608 3.5039893083391274 2 48.991292573312961 2.6842171985663019 2 59.105897448738553 7.534967210334953 2 64.935361086947154 6.4353413235581494 2 99.0 2.4737119513805936 2 17.502714443042702 2.730280629683064 2 24.347407068104904 2.705725541004556 2 48.431472478265526 5.3171025788427864 2 56.588753778717766 4.6767461242455219 2 58.527278504450358 4.8204977351060974 2 16.493575338503046 1 2 20.951121355571839 3.946275625351054 2 40.672397962025627 5.1703974174267273 2 51.042239875987157 2.67642600398373 2 49.879177507722034 6.596815798530792 2 63.905014633224987 4.7274176329359543 2 66.610368629184919 4.3237063052666649 2 21.997598816972229 2.3346210947864723 2 46.182371577847093 1 2 54.761858183081152 4.7313427430473523 2 61.927615854407598 4.9006139436367624 2 18.952081058483895 4.3627222303114586 2 44.572852311674225 5.233526384964617 2 43.282303607538211 7.7825937341227469 2 51.883179930003941 1 2 61.187471028648005 7.5551514340620889 2 12.563837505272097 1 2 15.487345006021645 2.6598313273738774 2 48.132958075693388 1 2 55.729250164605631 7.5817561526760526 2 55.671465330608726 1 2 14.104487555104512 6.2828685138563367 2 22.566124921775781 5.938559076751277 2 48.638430020851381 8.1273642963737505 2 53.431181766700291 6.2519807977759898 2 61.652427097950188 2.8040227092700429 2 65.354876959569168 2.9023118000455628 2 19.553756813688047 2.563186426906702 2 41.899596141878348 2.6877502298453195 2 54.789759331553981 2.7603080746749367 2 59.35011099021429 1 2 12.537762364283532 5.0307023156616806 2 17.952948356353208 7.7646529007490646 2 41.080232791416854 1 2 46.484931510186236 4.9872768428324497 2 49.976375855483582 1 2 60.162973904691192 5.8375633776786646 2 66.068696429246515 8.0417456070297746 2 97.752384402541551 1 2 18.472803907827874 1 2 25.347496701583658 1 2 50.055865189571591 4.4278055586201601 2 56.648232301202611 2.7416946174406851 2 58.602935297936654 2.788523483704445 2 14.535351573251571 1 2 20.288326627621824 5.838425652081094 2 27.339530042878494 1 2 42.638691819989774 5.2616842943743807 2 51.507002394251117 5.6204265805929357 2 51.875893939944717 7.5406163265661235 2 63.503915650438131 2.8533887001274469 2 </DataArray>
<DataArray Name="forces" NumberOfComponents="3" format="ascii" type="Float32">0.020943724806350456 -0.10347870590190866 0.0 0.022611711258910608 -0.015244913478173687 0.0 -0.027094624605269929 -0.026359816952486084 0.0 -0.032710100441406161 0.061257271936447158 0.0 -0.0021646865460770879 0.028198875317461763 0.0 -0.013481733348898402 0.085405646349417469 0.0 0.0013933673230565559 0.038552861734232051 0.0 -0.099736743756592861 0.069730495754302832 0.0 -0.035282481035797689 0.0015350994108927272 0.0 0.042025022579047416 0.050121262055076367 0.0 0.0066924575214617546 0.025591534924100039 0.0 0.02356528529744633 0.033516737815886398 0.0 -0.083453638574158689 -0.042071373589414936 0.0 0.049571137001534253 0.034433009632114514 0.0 0.011472835325478579 0.026325841924341113 0.0 0.018375924277352268 -0.0660520190215831 0.0 -0.0088597009999025322 0.016006602370832235 0.0 0.00036278639815486447 0.017822006024880717 0.0 0.0061384697991127661 0.089116639595017116 0.0 0.0047377852750972249 0.02402669583212657 0.0 0.021824041054923193 -0.086164667493345642 0.0 -0.0091806614822356226 -0.066171425930378169 0.0 -0.026782061670889576 -0.17090410817705354 0.0 -0.054406159007844068 -0.11701447050784643 0.0 0.02023277557672367 -0.17520641562164863 0.0 0.0036694105869977955 -0.12435978791939505 0.0 -0.010015558822088811 0.034095082829713352 0.0 0.01417236085592489 0.012224753545611713 0.0 -0.0019368545117235958 0.110338950902883 0.0 0.020202134693276363 0.083980907354562886 0.0 -0.13102767618826339 -0.047105131144101024 0.0 -0.010695471212146531 0.026323903879660038 0.0 0.060455004548587384 0.051344511017941671 0.0 0.082512839925425796 0.013332900053471528 0.0 -0.0048387000939723972 0.028886569578979199 0.0 -0.01730840383447468 0.0086654494943361644 0.0 0.079863936284654394 0.011490137365816385 0.0 -0.054888302694699777 -0.010729401842298512 0.0 0.074674102242121759 0.041293968514804207 0.0 -0.030865295719346916 -0.040114568634519863 0.0 0.055821662227105481 -0.0082883280335654119 0.0 -0.046233921806592311 0.036922624896937109 0.0 0.15335525142829354 -0.028176531381050557 0.0 -0.013214520339812262 0.017348766292563628 0.0 -0.020510211823364977 -0.0041579325416203974 0.0 0.0056628153976060452 0.031222889446460844 0.0 -0.0079162619494330955 0.10597135045665565 0.0 -0.054636760466496292 -0.096278107674982849 0.0 0.053804992441806899 0.0012642598253959116 0.0 0.0033267773075506767 -0.0019346714028465413 0.0 -0.017444085447967286 0.028742632209395658 0.0 0.00023634245819353222 -0.031114362134334241 0.0 -0.0064494154043188883 0.002262489512340662 0.0 -0.0093776573551078019 -0.16683871772346015 0.0 0.019851584858465617 0.04678166339652956 0.0 -0.027477097049111276 -0.068662079883764465 0.0 -0.0019392670167646675 -0.0044258731535872647 0.0 0.077016284172599009 -0.049848133571725864 0.0 -0.0026179713341754731 0.001707958153839821 0.0 -0.02816934713484251 -0.018360798763848697 0.0 -0.0039870204750923986 0.032341200255729674 0.0 -0.0053768397252790768 0.056619593708828284 0.0 -0.013369156250034823 0.047461126789493026 0.0 0.013207719818563068 0.10582183344678908 0.0 0.0219688172275192 0.015925770051657549 0.0 0.0087089688491199801 0.035597920688813872 0.0 -0.014130866449772607 0.014106837735320135 0.0 -0.041824549690527964 0.007490410481436463 0.0 0.064042971228123871 0.032232634946596644 0.0 -0.0048970902376471032 -0.05524859734141678 0.0 -0.012266820841102378 -0.0096228646463925108 0.0 -0.0076641400249265182 0.038768864728917538 0.0 0.08725754207873046 -0.11148808272648777 0.0 -0.080835861733294462 -0.022688972857677611 0.0 -0.042459481758941708 -0.080104620260101678 0.0 -0.012089102426031438 -0.024790576174471994 0.0 -0.0051874824174220789 0.01176236523315312 0.0 -0.016723392038346434 -0.058902041070285377 0.0 0.013532034991714965 -0.094892128295151812 0.0 -0.0454885961345671 -0.081257217902688236 0.0 0.00013898365870348289 0.13838921912054478 0.0 -0.04418892059001913 0.040431492443386452 0.0 0.022860458170596912 0.028438833175073466 0.0 0.02475830327220431 -0.055792246496756508 0.0 -0.0011348970273300854 0.059031217072686028 0.0 0.0055660094489637102 -0.015259297964129238 0.0 0.057278301710814689 0.027271741306084587 0.0 -0.050964714980026714 0.047779425873377447 0.0 0.0097429360575116541 0.056640426842239681 0.0 0.027016720948447787 0.035032162698207379 0.0 </DataArray>
<DataArray Name="radii" format="ascii" type="Float32">1 1 1 1 1 1 1 1 1 1 1 1 1 1 1 1 1 1 1 1 1 1 1 1 1 1 1 1 1 1 1 1 1 1 1 1 1 1 1 1 1 1 1 1 1 1 1 1 1 1 1 1 1 1 1 1 1 1 1 1 1 1 1 1 1 1 1 1 1 1 1 1 1 1 1 1 1 1 1 1 1 1 1 1 1 1 1 1 1 1 </DataArray>
</PointData>
<CellData/>
</Piece>
</UnstructuredGrid>
</VTKFile>
