<?xml version="1.0" ?>
<VTKFile byte_order="LittleEndian" type="UnstructuredGrid" version="0.1">
<UnstructuredGrid>
<Piece NumberOfCells="0" NumberOfPoints="374">
<Points>
<DataArray NumberOfComponents="3" format="ascii" type="Float32">9.7599793693798915 1.5999999999999999 2 28.92020980857837 1.5999999999999999 2 76.88736059069295 2.455889411754685 2 80.34545847671825 3.0896640385746328 2 89.136708982298813 3.8444007845003596 2 3.0902722185919917 1.5999999999999999 2 34.403888046084127 2.1155127894693666 2 68.200219354324901 1.5999999999999999 2 86.258561953885319 1.5999999999999999 2 86.825109685686257 10.051178949914366 2 5.62424083628727 7.80199965482546 2 31.142032362869966 7.7966571092539247 2 74.865748746857022 8.4385564812403686 2 79.63836444855751 6.0239831036523137 2 92.813197408218556 4.4161961539189925 2 5.2763663648356189 6.1382094528900693 2 34.872885265577494 3.610198761071842 2 68.715611525523258 1.5999999999999999 2 81.075365555283071 6.1969936511848438 2 88.202318134874673 1.5999999999999999 2 5.3388134356560251 1.5999999999999999 2 27.421101300104297 1.5999999999999999 2 75.099063816364861 3.2078570103146866 2 77.18104937976733 4.2575926442355412 2 89.031479306300199 8.415525336407617 2 3.6307060490909704 1.5999999999999999 2 37.983403094848775 2.8845792141559312 2 71.039676828846098 4.3540333367142905 2 85.738606903130886 3.3391421891651314 2 86.186094961667862 8.5104479829983841 2 8.1782963426000137 3.8909399994992762 2 26.366559607105188 7.1050189582635168 2 71.41679430986818 9.2317733726260354 2 75.957340675274196 4.8717314036629791 2 94.559238221783872 1.5999999999999999 2 95.361873811681093 1.5999999999999999 2 1.5999999999999999 5.9893559968485883 2 36.272651076351572 7.0114235761690678 2 72.729098052689949 4.0283185396022239 2 80.907786742775414 1.5999999999999999 2 91.844533289648751 1.9667884090552974 2 12.819197207776215 1.5999999999999999 2 31.045361616158917 1.5999999999999999 2 78.297172758796179 2.6670601658463271 2 79.060647213643335 1.5999999999999999 2 90.250019987881913 3.9288673033067489 2 1.5999999999999999 2.4336011546989078 2 12.495224321943654 6.3241693135832335 2 34.062125490268905 1.5999999999999999 2 67.720965827843784 5.028503136834459 2 68.031244777220834 2.8046609684098613 2 83.793390439326785 1.5999999999999999 2 88.909854843340653 5.7423893825635028 2 8.2260692636052877 9.0238657996180063 2 33.758108325959078 5.4999840960881405 2 73.721658744271963 5.9345381483172295 2 77.480008162884033 9.6770623106288554 2 92.834442901415926 7.7362465491307679 2 6.4252672651198806 5.3760813363602882 2 32.380963318948673 4.1842235914103743 2 73.1426132586232 1.5999999999999999 2 84.624022553594401 3.8995811569281242 2 90.23980937631741 1.5999999999999999 2 8.2379240976985173 1.5999999999999999 2 25.432829635125842 2.9567007598111341 2 28.813191066271337 6.5983745853883251 2 74.180008141128397 1.5999999999999999 2 80.212082920190923 4.9026140551872661 2 95.324848891421013 8.0835983527908351 2 5.0138475103766984 3.8062479970932497 2 37.110965069028133 1.5999999999999999 2 69.042791723777157 8.0157491083225381 2 85.632203103850742 6.7762152997936385 2 84.855852375721199 5.0877783857301031 2 8.7000374645311336 6.9695150539544972 2 25.106369157518564 5.5579091843119084 2 73.469076625368459 7.2033109271699622 2 77.305204418417759 6.6271694421254894 2 95.348416075509235 5.352515565571756 2 96.727863882067837 3.8893985362238941 2 1.5999999999999999 7.0246941243664773 2 38.002517313857012 4.2116641933622931 2 72.653886205701269 1.5999999999999999 2 82.85491171610272 2.7639333140222853 2 91.259385527542008 1.5999999999999999 2 98.4 4.0894451289205263 2 10.314237698436376 1.5999999999999999 2 29.459884592560904 1.5999999999999999 2 76.026482133333644 1.5999999999999999 2 80.97061398804783 3.9211669103041285 2 89.76561752164433 4.8817109647893977 2 1.5999999999999999 1.5999999999999999 2 32.179817955592853 1.5999999999999999 2 67.125770644866208 1.5999999999999999 2 86.759952228264083 1.5999999999999999 2 86.907996851998419 7.2211324004080115 2 7.1025304988711984 7.4276714759576787 2 12.394803164473617 3.3290831490029125 2 33.807381206294082 8.3372716460304979 2 74.219222265386961 10.029990554061886 2 78.956986818757841 8.6248313090184254 2 94.02186858833096 5.7459326152079981 2 3.0135529696906898 6.8588427257883291 2 33.416977380491282 3.3563355189228341 2 65.12517121324494 1.5999999999999999 2 70.217348075320587 1.5999999999999999 2 81.471043248131267 8.079839941539138 2 88.704971028328799 1.5999999999999999 2 7.2251217784799495 1.5999999999999999 2 28.379897313037826 3.1066207842464202 2 74.049469402106794 3.7259087954541257 2 79.761651323909732 4.0398000353835455 2 91.691008267018063 8.9026047185155974 2 4.1345862179149657 1.5999999999999999 2 37.684339495971081 1.5999999999999999 2 70.32772740747096 2.7839889283599266 2 87.752413407848522 3.5500773411662654 2 84.323855302734913 10.908838856373789 2 98.4 1.5999999999999999 2 9.9645054937505897 3.1425074802835899 2 29.633277656614588 9.2939518118461333 2 69.594577545406622 9.3371969673232371 2 76.248561904589096 3.3898035434442431 2 93.05923476453215 1.5999999999999999 2 97.298524698588494 1.5999999999999999 2 1.5999999999999999 3.966190793241811 2 37.23752212648234 8.3532994411926378 2 72.080138765838186 4.9224883656343792 2 80.445843091913062 1.5999999999999999 2 93.552568637984777 3.6269423208425549 2 11.240143216467386 3.4254650862447185 2 31.574469868092699 1.5999999999999999 2 77.569362237346837 1.5999999999999999 2 79.531418007021415 1.5999999999999999 2 91.22022521895876 4.7185895633086705 2 1.5999999999999999 1.5999999999999999 2 11.880210184213562 8.2341461273218322 2 35.996910402100013 1.5999999999999999 2 68.15862920174358 4.0191645993947001 2 69.951464280865665 3.9127204122290093 2 81.833351991012776 1.5999999999999999 2 87.62053573690423 5.9409944422258683 2 10.332366868882742 9.7180354298111045 2 13.478154912030403 1.5999999999999999 2 32.624500821055292 6.8820837935228667 2 76.120319980973875 6.3347488727060437 2 79.009407121382466 11.084538658634093 2 90.802766203929664 5.9306910369814156 2 7.159719940442745 3.4260686425054927 2 30.991740514725816 3.8724606365565299 2 66.324605763811192 2.5357207339574708 2 72.958637852669696 3.1098442532996367 2 84.767602737288897 1.5999999999999999 2 88.591242580231807 2.9444198184646289 2 7.7480667406696373 1.5999999999999999 2 27.227798314538845 3.917138039915995 2 30.17949996365007 4.3268310553060578 2 39.306266423837798 3.8059194218163523 2 74.666631939218234 1.5999999999999999 2 83.175781140450354 5.9712898348459094 2 97.49624873844941 7.3731647337845336 2 3.2672302596564196 3.9738228090394969 2 35.754995920548275 2.9145761669090113 2 39.710616820394328 1.5999999999999999 2 69.236379607630397 5.597884767983718 2 85.751237937908272 4.2833416630546255 2 84.338626592415579 7.5539394545293082 2 9.0691715196914817 4.9111275235122989 2 23.906402062990576 1.5999999999999999 2 27.631891084938335 5.4384166465377843 2 71.230840645120395 6.3674017066957429 2 78.278956473088371 5.734348459162077 2 96.06057572593096 2.8901857987822286 2 98.4 2.0017126240367258 2 1.5999999999999999 9.391397937013549 2 25.534767787146041 1.5999999999999999 2 36.71719763474659 5.2796922119444387 2 71.215256911620628 1.5999999999999999 2 83.038499430923224 3.8868277810002687 2 91.949268843012874 1.5999999999999999 2 96.948348243021641 6.0696083267055982 2 8.7147707149045601 1.5999999999999999 2 30.565792840802775 1.5999999999999999 2 77.031392451526614 1.5999999999999999 2 79.305766641132891 3.1202195054604611 2 89.786012521662627 2.7297929810507493 2 2.6714183866808212 2.9582414908850425 2 35.404957889644876 1.5999999999999999 2 67.672576445656773 1.5999999999999999 2 85.285984949189867 1.5999999999999999 2 88.811294657641611 9.9526130677912619 2 4.1435812747821741 9.517646993320156 2 32.284848765658118 9.5898021335662715 2 76.197629928598971 8.4772371058295892 2 80.298483385010016 7.2158476682212491 2 94.262559488568783 4.4382881091486528 2 3.7459028265275331 5.6267076145649879 2 35.166637946740451 4.5085226117565336 2 69.215681197693669 1.5999999999999999 2 82.210687762387067 6.660011599260546 2 87.72373981327631 1.5999999999999999 2 5.8984696054103685 1.5999999999999999 2 26.696446316990738 1.5999999999999999 2 73.961296122537206 2.5853784642946929 2 78.779017947080462 4.7711091425227803 2 90.611230023805021 7.8136964505600224 2 4.0900137492463671 3.2101061140223477 2 38.986478187620385 2.8532718816591847 2 69.21706021059218 4.4413955872733482 2 85.776046407099386 1.5999999999999999 2 84.579845616085862 9.0480391991055207 2 7.6460158726871894 4.7854154770308872 2 14.87974005567893 1.5999999999999999 2 28.112760447187352 7.7919737364303385 2 71.84688673875479 7.8057629694312203 2 74.582395166586636 4.4038355909325793 2 94.996841342284085 1.7638416727668729 2 95.902739220147382 1.5999999999999999 2 3.8615760191307626 4.4674244145414166 2 34.511859998291094 7.0429688510830726 2 65.884911651790915 5.3471888875490805 2 71.172385527029988 3.515803213874042 2 82.312979031261349 1.5999999999999999 2 92.652882151416648 3.2106700247798385 2 12.10548671942639 1.8763432226665506 2 32.512982167945992 2.3783395059588126 2 64.747586383104661 4.244787802213966 2 77.506076920152481 3.559446907139757 2 78.581039685077641 1.5999999999999999 2 90.990495147877326 3.1997068529905928 2 1.5999999999999999 3.3024031007255688 2 11.234427775635554 6.5286936159056124 2 32.858530577371376 1.5999999999999999 2 41.259495375155609 4.4238585991576436 2 67.730302668424272 6.2915030740412572 2 67.184308067816161 3.4351874031424718 2 82.804317914281143 1.5999999999999999 2 89.75010899723047 6.711930579320093 2 6.2553140249413612 9.7781991618911626 2 35.333014900004535 5.8959552026652311 2 75.003843992488456 5.7640103836987544 2 76.004264065332592 11.0341627591791 2 94.081705877728453 9.6190654006870613 2 6.3734949750573335 4.1535816716424518 2 33.809155533653566 4.2551395632280125 2 72.170012277507965 1.5999999999999999 2 84.874433327089918 2.6386307879222937 2 89.19808089715184 1.5999999999999999 2 9.2432405181415831 1.5999999999999999 2 24.741986635381675 4.206281258494422 2 30.454740862222192 6.5912808764885753 2 75.142405764089759 1.5999999999999999 2 81.416951798008611 5.0835103882658981 2 94.100051579141265 6.9585226100335271 2 4.9958545569789026 4.8670967276364765 2 36.575498295538338 1.5999999999999999 2 66.158945645978761 7.600492550974332 2 70.3758147868176 7.2132295426996178 2 84.458289270528098 6.1532177600624536 2 83.750436299263043 4.6776759599498963 2 9.756671707369085 5.8969844537604024 2 26.434618791339986 5.5340946657543322 2 73.128708139061473 8.6128270306046932 2 77.45691802316739 7.8695127816300205 2 96.430013123696568 4.9704096690019641 2 95.496230965170383 3.8942529949340838 2 1.5999999999999999 5.2862761320239349 2 36.46753784685739 4.1278205858920174 2 71.695327346181372 1.5999999999999999 2 81.603961774506857 2.9302906107314111 2 90.752832035431112 1.5999999999999999 2 97.471385282656854 3.0428107325043818 2 10.716030426314733 1.6275262296445663 2 28.03955293984723 1.5999999999999999 2 41.75563893165338 1.5999999999999999 2 76.515405345425037 1.5999999999999999 2 82.032057257783507 3.8567466717843804 2 88.291020709958332 4.5166467822929173 2 1.5999999999999999 1.5999999999999999 2 33.455103328866166 1.5999999999999999 2 66.579978672227099 1.5999999999999999 2 86.809906690091452 2.763292186734426 2 88.170703525585466 7.3483903409297664 2 7.4914769281298454 6.1651239152700086 2 12.162147272588395 4.1310071180890047 2 35.541867853611478 9.4783243205686603 2 72.421771352447621 11.058969357394743 2 78.837527204526197 7.0707644691381031 2 92.587883649765558 5.6598577826630416 2 4.395505328726375 7.1861732679545716 2 22.840056186870196 7.4444717586908489 2 31.743950243147637 3.3067161496948452 2 64.529512133172346 1.5999999999999999 2 69.69989267987313 1.5999999999999999 2 80.286355076933432 9.0838114587549796 2 89.717917677940903 1.5999999999999999 2 6.4512605905225682 1.5999999999999999 2 29.842362145220051 2.9766328514831564 2 73.434222856932763 4.8454671690616928 2 78.524715397164215 3.9458748796931564 2 91.117158192126183 10.685425336517426 2 4.7025474376038048 1.5999999999999999 2 38.308675054826828 1.5999999999999999 2 71.956901277227857 3.092249543689757 2 86.798745884793803 3.8979818287758614 2 82.615155477766109 9.2697490242274423 2 98.2575693071811 1.5999999999999999 2 8.8007996457295636 3.2752732590669322 2 26.863312954559067 9.5163221256073793 2 69.742517382957814 11.221676193950175 2 75.672047588111155 4.0393735046501389 2 94.020321293557345 1.5999999999999999 2 96.491051662619014 1.5999999999999999 2 1.5999999999999999 4.5148133558528079 2 38.848513395893704 9.6039402007617731 2 72.423828504688757 6.130158131373296 2 79.98115724137908 1.5999999999999999 2 93.529989748497599 1.5999999999999999 2 11.257077871544821 1.5999999999999999 2 21.823932711842243 1.5999999999999999 2 30.006677143810958 1.5999999999999999 2 78.066023851992369 1.5999999999999999 2 81.355349297269782 1.5999999999999999 2 91.761303749888768 3.8950049567924689 2 2.3987327168106494 1.5999999999999999 2 13.584723609051604 8.8385728075494985 2 34.809556858127017 1.5999999999999999 2 40.036910705497071 6.1370406279533043 2 66.625826848881218 4.1225181675751159 2 69.122234103488154 3.1499047208695785 2 83.29499677336112 1.5999999999999999 2 87.086587228880603 4.790648969589328 2 10.030720890355198 7.5622734801000817 2 14.167861996648869 1.5999999999999999 2 32.464186710910823 5.5200217565725644 2 74.984159336726009 7.0422316697908238 2 81.554197565154098 10.846189053918414 2 91.881673903016406 6.5641569917035207 2 5.9317417234799512 3.1733711064297072 2 29.1666335839971 3.7571656828285014 2 63.994071860893484 1.5999999999999999 2 65.589221158041525 1.5999999999999999 2 73.66739608515941 1.5999999999999999 2 84.259588651142622 1.5999999999999999 2 87.247768556113471 1.5999999999999999 2 6.8451318021756613 1.8978802163833877 2 26.038690537150039 4.1880839190054289 2 31.176314810403422 5.3848230402938428 2 39.991520119290016 4.5535005008340033 2 75.576582181239559 1.5999999999999999 2 82.483106464350911 4.9746576616751472 2 97.130899136489887 9.1878330975122626 2 4.6792638294336699 2.1246699138820446 2 15.83495866911468 8.5178899916853705 2 36.937361210384651 3.2557256601698925 2 39.030643888524985 1.5999999999999999 2 68.87513141854599 6.7193308861990833 2 86.111867176035091 5.6521270427990888 2 83.049428082717796 7.7241304799092605 2 9.8522158358713785 4.1579103156295556 2 24.765531083843605 1.5999999999999999 2 29.354852397454348 5.3895137943723128 2 70.582730578088487 5.4423219029515826 2 77.14289123413046 5.3419260459860558 2 94.469446356155458 3.2698766549465699 2 98.4 3.2752307907428957 2 2.4745050973109759 8.3236093404151017 2 26.093604808806138 1.5999999999999999 2 37.749483087482083 5.6442713200403123 2 62.973465527416046 2.0474154648648524 2 70.731981435864441 1.5999999999999999 2 83.886263942434127 3.2331455683998396 2 92.545232734892835 1.5999999999999999 2 98.158443435838223 5.0721794997034984 2 </DataArray>
</Points>
<Cells>
<DataArray Name="connectivity" format="ascii" type="Int32">0</DataArray>
<DataArray Name="offsets" format="ascii" type="Int32">0</DataArray>
<DataArray Name="types" format="ascii" type="UInt8">1</DataArray>
</Cells>
<PointData>