<?xml version="1.0" ?>
<VTKFile byte_order="LittleEndian" type="UnstructuredGrid" version="0.1">
<UnstructuredGrid>
<Piece NumberOfCells="0" NumberOfPoints="29">
<Points>
<DataArray NumberOfComponents="3" format="ascii" type="Float32">0 0 0 10.115212215110098 1.2 2 24.92778305504136 8.1011107361716697 2 38.110449804244752 6.0408103852359281 2 67.931871377117204 3.3369745953092593 2 93.964597666778275 5.2791858388894477 2 10.100036430935864 5.137047654507934 2 29.066794153397687 1.2 2 68.847817635428086 8.9042209164379962 2 98.6 6.27005195419998 2 23.689997673207309 4.3413475280717879 2 36.663382510612635 1 2 67.212371934288839 1.4 2 94.900702534861281 7.0476373594916373 2 28.481288611369578 4.9851826310627967 2 38.281276620115072 1.4 2 96.272739015305078 1.2 2 26.524320902816218 2.7929169934621338 2 39.320157998052188 3.8488923370817312 2 11.014166288289532 3.3588404103583884 2 24.743471428298541 3.0811204605571212 2 28.109888112758814 3.1903427654183933 2 66.889247824104302 5.278368636358425 2 96.830565741941655 2.8384053206224942 2 97.557922827881526 4.5253852250725437 2 25.011494460289079 5.8911559877610475 2 13.190854941091557 7.3650023918958185 2 11.928140685856926 5.3653010918980888 2 67.834140908541031 7.1983076086433311 2 </DataArray>
</Points>
<Cells>
<DataArray Name="connectivity" format="ascii" type="Int32">0</DataArray>
<DataArray Name="offsets" format="ascii" type="Int32">0</DataArray>
<DataArray Name="types" format="ascii" type="UInt8">1</DataArray>
</Cells>
<PointData>
<DataArray Name="Points" NumberOfComponents="3" format="ascii" type="Float32">0 0 0 10.115212215110098 1.2 2 24.92778305504136 8.1011107361716697 2 38.110449804244752 6.0408103852359281 2 67.931871377117204 3.3369745953092593 2 93.964597666778275 5.2791858388894477 2 10.100036430935864 5.137047654507934 2 29.066794153397687 1.2 2 68.847817635428086 8.9042209164379962 2 98.6 6.27005195419998 2 23.689997673207309 4.3413475280717879 2 36.663382510612635 1 2 67.212371934288839 1.4 2 94.900702534861281 7.0476373594916373 2 28.481288611369578 4.9851826310627967 2 38.281276620115072 1.4 2 96.272739015305078 1.2 2 26.524320902816218 2.7929169934621338 2 39.320157998052188 3.8488923370817312 2 11.014166288289532 3.3588404103583884 2 24.743471428298541 3.0811204605571212 2 28.109888112758814 3.1903427654183933 2 66.889247824104302 5.278368636358425 2 96.830565741941655 2.8384053206224942 2 97.557922827881526 4.5253852250725437 2 25.011494460289079 5.8911559877610475 2 13.190854941091557 7.3650023918958185 2 11.928140685856926 5.3653010918980888 2 67.834140908541031 7.1983076086433311 2 </DataArray>
<DataArray Name="forces" NumberOfComponents="3" format="ascii" type="Float32">0 0 0 -0.012491072822736982 -0.69238111360814569 0.0 0.020938516819972025 0.42997819332159309 0.0 -0.052515494227691861 0.39801479960577746 0.0 -0.0047621235485622027 0.23833824450447055 0.0 0.050661437446900548 0.19590915369811812 0.0 -0.021363820333983027 0.15883844145495682 0.0 0.0037579706661250434 -0.59744874715461671 0.0 0.020853229564373684 0.2065913825638469 0.0 0.28985660951447229 0.35471667467805218 0.0 0.079295246020316998 0.38088012905704571 0.0 -0.018524141428210933 -0.69324868612084545 0.0 0.013861897468295359 -0.98694609264115307 0.0 0.094718814745661378 0.22779183435129241 0.0 -0.01017621978040259 0.13963345631248569 0.0 -0.025112564052791275 -0.61161118283306726 0.0 0.068723669347843158 -0.69072161480648331 0.0 0.038909171572465706 0.14654834451907595 0.0 -0.013988372482241954 0.29048066700661085 0.0 -0.021252012647646826 0.25168060582609553 0.0 0.012672331938178127 0.16135252431086144 0.0 0.00138781274808783 0.15531438241241774 0.0 0.019087432669828298 0.25801357756618237 0.0 0.04726725435753576 0.074216086634854322 0.0 -0.061635060992559554 0.11074077043574643 0.0 0.025226504676044315 0.22186763754790062 0.0 -0.04409233014272837 0.2495349211041393 0.0 -0.019995966129778209 0.25095349698463104 0.0 0.01799777362894911 0.18356032954552334 0.0 </DataArray>
<DataArray Name="radii" format="ascii" type="Float32">0 1.2 1.4 1.4 1.2 1 1 1.2 1 1.4 1.4 1 1.4 1 1 1.4 1.2 1 1.2 1.2 1.2 1 1.2 1 1 1 1.2 1.2 1 </DataArray>
</PointData>
<CellData/>
</Piece>
</UnstructuredGrid>
</VTKFile>
