<?xml version="1.0" ?>
<VTKFile byte_order="LittleEndian" type="UnstructuredGrid" version="0.1">
<UnstructuredGrid>
<Piece NumberOfCells="0" NumberOfPoints="9">
<Points>
<DataArray NumberOfComponents="3" format="ascii" type="Float32">0 0 0 9.582960416186177 1.2 2 37.752802612178954 3.4418301930099675 2 68.584887054582964 3.8037993381986976 2 91.223155399884448 3.7394703007068957 2 30.032625422898814 1.2 2 37.734443816989092 1 2 67.725468254553789 1.4 2 92.671642557743283 1.5999999999999999 2 </DataArray>
</Points>
<Cells>
<DataArray Name="connectivity" format="ascii" type="Int32">0</DataArray>
<DataArray Name="offsets" format="ascii" type="Int32">0</DataArray>
<DataArray Name="types" format="ascii" type="UInt8">1</DataArray>
</Cells>
<PointData>
<DataArray Name="Points" NumberOfComponents="3" format="ascii" type="Float32">0 0 0 9.582960416186177 1.2 2 37.752802612178954 3.4418301930099675 2 68.584887054582964 3.8037993381986976 2 91.223155399884448 3.7394703007068957 2 30.032625422898814 1.2 2 37.734443816989092 1 2 67.725468254553789 1.4 2 92.671642557743283 1.5999999999999999 2 </DataArray>
<DataArray Name="forces" NumberOfComponents="3" format="ascii" type="Float32">0 0 0 -0.033723343156838351 -0.15050161700443929 0.0 -0.024483935996371067 0.12119455839739873 0.0 -0.0049456670877640815 0.070886426038223732 0.0 0.010323411468618605 0.042909537885460751 0.0 -0.0055915514719335202 -0.21582365141644572 0.0 -0.019780258440891763 -0.1438873188475264 0.0 -0.0011313687351326984 -0.11764968086043952 0.0 0.008525788442230009 -0.013488356797872138 0.0 </DataArray>
<DataArray Name="radii" format="ascii" type="Float32">0 1.2 1.4 1.2 1 1.2 1 1.4 1.5999999999999999 </DataArray>
</PointData>
<CellData/>
</Piece>
</UnstructuredGrid>
</VTKFile>
