<?xml version="1.0" ?>
<VTKFile byte_order="LittleEndian" type="UnstructuredGrid" version="0.1">
<UnstructuredGrid>
<Piece NumberOfCells="0" NumberOfPoints="28">
<Points>
<DataArray NumberOfComponents="3" format="ascii" type="Float32">21.565686341621731 1.5999999999999999 2 26.002691677538589 4.316549503865005 2 45.555933710603242 1.5999999999999999 2 54.116061570614292 1.5999999999999999 2 59.621132378329847 1.5999999999999999 2 13.92199493843737 4.2752172182223038 2 18.074295171949004 6.4107746196239912 2 42.77067984139196 1.5999999999999999 2 46.607759259115653 4.4370120329960656 2 51.262056916696899 1.5999999999999999 2 60.840174368418431 4.3706895095465406 2 63.978854678308679 4.3702333368375097 2 98.4 1.5999999999999999 2 12.289968055356995 1.5999999999999999 2 18.494048753571214 1.5999999999999999 2 24.516879089888196 1.5999999999999999 2 48.385243454525671 1.5999999999999999 2 55.98848878849212 4.4845818002195292 2 56.896374246877066 1.5999999999999999 2 15.433337517947141 1.5999999999999999 2 20.242647309346086 4.2315889535986857 2 27.515230306090011 1.5999999999999999 2 39.965644087599365 1.5999999999999999 2 49.741596389587947 4.3494818884571682 2 52.840355998810026 4.3543312839592385 2 62.413991592818299 1.5999999999999999 2 65.208886524812812 1.5999999999999999 2 95.533685653900591 1.5999999999999999 2 </DataArray>
</Points>
<Cells>
<DataArray Name="connectivity" format="ascii" type="Int32">0</DataArray>
<DataArray Name="offsets" format="ascii" type="Int32">0</DataArray>
<DataArray Name="types" format="ascii" type="UInt8">1</DataArray>
</Cells>
<PointData>
<DataArray Name="Points" NumberOfComponents="3" format="ascii" type="Float32">21.565686341621731 1.5999999999999999 2 26.002691677538589 4.316549503865005 2 45.555933710603242 1.5999999999999999 2 54.116061570614292 1.5999999999999999 2 59.621132378329847 1.5999999999999999 2 13.92199493843737 4.2752172182223038 2 18.074295171949004 6.4107746196239912 2 42.77067984139196 1.5999999999999999 2 46.607759259115653 4.4370120329960656 2 51.262056916696899 1.5999999999999999 2 60.840174368418431 4.3706895095465406 2 63.978854678308679 4.3702333368375097 2 98.4 1.5999999999999999 2 12.289968055356995 1.5999999999999999 2 18.494048753571214 1.5999999999999999 2 24.516879089888196 1.5999999999999999 2 48.385243454525671 1.5999999999999999 2 55.98848878849212 4.4845818002195292 2 56.896374246877066 1.5999999999999999 2 15.433337517947141 1.5999999999999999 2 20.242647309346086 4.2315889535986857 2 27.515230306090011 1.5999999999999999 2 39.965644087599365 1.5999999999999999 2 49.741596389587947 4.3494818884571682 2 52.840355998810026 4.3543312839592385 2 62.413991592818299 1.5999999999999999 2 65.208886524812812 1.5999999999999999 2 95.533685653900591 1.5999999999999999 2 </DataArray>
<DataArray Name="forces" NumberOfComponents="3" format="ascii" type="Float32">-0.005620943600217379 -0.22710258553630031 0.0 0.0066546138114955966 0.16961594923737819 0.0 -0.016521156327322595 -0.1630136728560295 0.0 -0.0044680647544877855 -0.14878129151241315 0.0 -0.0015087929393293731 -0.15833876002733641 0.0 -0.028695436711913616 0.1666849764679007 0.0 -0.088225672157115576 0.090726568837896954 0.0 -0.019967860566829643 0.0 0.0 -0.0045260578987584496 0.16484416152408407 0.0 -0.0072890651345736118 -0.072049999131791415 0.0 0.0019351639998336067 0.16945683589872546 0.0 0.0020296107810742203 0.16975572306582826 0.0 0.33239687156179487 0.0 0.0 -0.028754870101369984 -0.04610029402525307 0.0 -0.011214147897738839 -0.034882852440899052 0.0 -0.0019357452455153468 -0.091737083493026367 0.0 -0.011788927880219631 -0.1205474553693702 0.0 -0.0032625105460365803 0.16944705208440528 0.0 -0.0027270697234991689 -0.16740499958490451 0.0 -0.020148390632172192 -0.1110666511765287 0.0 -0.0028785739484893207 0.17125886913930241 0.0 -0.0015272846244225313 -0.038694780114137288 0.0 -0.02279638644862253 -0.0034547785414126841 0.0 -0.0050819728816871579 0.16854883153924161 0.0 -0.0041605009305891727 0.16895737330677779 0.0 -0.00023770404477735374 -0.027061611579308829 0.0 -0.00037221728407998977 -0.11616434753224229 0.0 0.0042838721753781783 0.0 0.0 </DataArray>
<DataArray Name="radii" format="ascii" type="Float32">1.5999999999999999 1.5999999999999999 1.5999999999999999 1.5999999999999999 1.5999999999999999 1.5999999999999999 1.5999999999999999 1.5999999999999999 1.5999999999999999 1.5999999999999999 1.5999999999999999 1.5999999999999999 1.5999999999999999 1.5999999999999999 1.5999999999999999 1.5999999999999999 1.5999999999999999 1.5999999999999999 1.5999999999999999 1.5999999999999999 1.5999999999999999 1.5999999999999999 1.5999999999999999 1.5999999999999999 1.5999999999999999 1.5999999999999999 1.5999999999999999 1.5999999999999999 </DataArray>
</PointData>
<CellData/>
</Piece>
</UnstructuredGrid>
</VTKFile>
