<?xml version="1.0" ?>
<VTKFile byte_order="LittleEndian" type="UnstructuredGrid" version="0.1">
<UnstructuredGrid>
<Piece NumberOfCells="0" NumberOfPoints="181">
<Points>
<DataArray NumberOfComponents="3" format="ascii" type="Float32">51.404690609170508 4.5328470624031079 2 52.108576018845326 1.8326654416198858 2 58.014569411654762 7.3064001927481232 2 44.377685208038521 7.5610911076344678 2 53.404191474159902 9.7865323493882528 2 53.907859148100009 1 2 19.267443979262598 9.3452453590704412 2 46.66300691925337 2.8454944790648855 2 58.336281466015521 9.0823280479626813 2 58.882036246632936 4.9464874797045537 2 60.059394442436087 6.3894280747051395 2 50.669183828855687 3.1008221331908654 2 47.56826856485754 7.8476982454338247 2 54.602656916722125 5.5350636509294233 2 50.889775032172118 1 2 62.578869477884076 9.7008682845143817 2 56.287578840904494 8.2398778641845212 2 56.471674320845494 1 2 45.270347894566108 10.259381555144239 2 51.977386361095455 8.48527656212163 2 56.275473549529593 3.4390732262764567 2 49.623859865727468 1.761321379294581 2 48.905518015696913 4.3441559494319879 2 51.614680177878398 6.2189899344232353 2 50.720458199405215 8.0495560121117613 2 53.261712618632792 4.5798373743667291 2 42.724128453197267 9.2667594280702925 2 55.401182503229649 3.1205630462273732 2 46.274950329502445 7.7444821015951373 2 56.508796153502757 11.820357303879669 2 53.505651363818686 1 2 60.903125530889987 10.551848722143463 2 48.190943509264656 4.4701980797053036 2 56.396091167527729 5.5957258295334178 2 49.194216883062253 2.8190194836567017 2 46.948929936262758 6.9055707299246789 2 52.783934587915695 5.5196558013607611 2 51.364561833184702 1.9374073591979424 2 56.047352935045225 7.3469114680618022 2 55.162257402463197 1 2 48.893283012541772 11.129547175761253 2 55.045059847190721 7.6654387857713466 2 56.066077976223305 1.7207575071154002 2 48.65242787825472 1 2 48.812484543523546 3.5676636284417356 2 49.420318802844385 6.367016341909312 2 52.483549942489589 11.774197636737775 2 51.994540897751264 3.9245345639666334 2 52.946892748119332 1.9852111392273291 2 58.847355866224149 6.5310294811241381 2 46.088374112978187 8.626812477165485 2 53.869038014822223 10.90276553573055 2 55.572656063579863 1 2 47.664347356497984 1.9781863528097758 2 58.939345286163075 9.770562321105043 2 57.904661714680721 5.1580767605474245 2 50.738168265528152 3.9623666232245451 2 46.871437348587143 9.4242605482849093 2 55.464624573555888 5.8879564231920609 2 50.03848759239235 1 2 62.247906305796612 11.042219060625055 2 48.312804764255404 1.4437129563827402 2 55.274187019090618 8.6651297892059311 2 46.705756526110591 10.82425778845257 2 51.936451263140604 7.1311406641788997 2 57.533513204095577 4.5158045255937234 2 50.464010297379971 1 2 50.688221522988322 6.0818483525993514 2 51.057291973760414 6.9888327432605193 2 49.092000921180841 8.2669735596158578 2 53.460184379446382 3.5517312268984442 2 43.003607807519408 10.825724561154317 2 54.206378805911967 4.7768244906127082 2 47.070217023122346 3.444472792728428 2 59.691022577486748 8.3242266423181537 2 56.013996940914758 1 2 56.259134787847572 9.7573067376887792 2 52.255089970783402 1 2 48.275712525873587 5.7030575072147061 2 55.69222467826156 5.0611264425131637 2 50.725007701234894 2.1579666842339082 2 53.443783340457053 6.3984019358606341 2 52.542464411670835 2.6687927719925804 2 57.607967715665886 6.4892514163146986 2 54.730435829560939 2.7659557711564986 2 49.151128155442038 9.0908480540767425 2 53.82491313609259 8.2078611620929127 2 54.737788223805325 1 2 49.766927128593103 3.6483465998493454 2 48.531633186305939 7.1696607840262869 2 50.862660208065094 9.8561085718902106 2 52.490997804469018 4.6094218754950331 2 51.775573488745366 1 2 59.387049716365752 7.1919820893631305 2 44.169352744215985 8.5995505761073368 2 54.075468971377759 9.0520874904087361 2 52.679732359564198 1 2 57.113033259263993 8.9190345207201478 2 52.03961105597898 2.8699033054686938 2 47.828540362937083 8.6975000084644112 2 53.661005704391876 5.4970935602315967 2 50.145471253097298 2.3180795982665394 2 63.789552885422431 9.9103867081640189 2 47.332508594612328 2.6168752473621573 2 57.676733802506199 8.1730280998997618 2 57.308467911340109 1 2 43.961682718699016 9.833558198763626 2 52.420142488878106 9.2848691017766871 2 55.370382888023222 3.8581160727194117 2 48.056812459167837 1 2 50.423326012767902 4.7638794216986575 2 56.891028864471174 4.0069927749109526 2 52.534238639579605 6.2972088371056358 2 50.813504975737544 8.8351709471001527 2 53.912051800908351 4.0187221501389354 2 43.335772388584758 7.9759653892303062 2 56.017863679877479 4.2355507549093083 2 56.0945174833046 2.6179895752338767 2 58.23988440276753 12.228625367099955 2 53.701366862910206 2.3487561608006655 2 59.625927355182917 11.009153855474905 2 56.355002941705742 6.4325039269403614 2 48.983914588579097 2.1358705968227749 2 47.607407854074658 5.7161916865663169 2 51.937579133188422 5.2705739239829601 2 51.346142137141555 2.6538469811447087 2 56.978440933112225 7.1568904144148231 2 54.183539749517692 1.9744546364560032 2 49.422758414142699 12.59610331247676 2 55.196983537803789 6.685586901121364 2 47.583908082703616 1 2 48.458444111465475 2.6077750821915999 2 49.373368576219164 4.9934105392239951 2 50.748903365322192 11.500719531989718 2 52.730198301980408 3.7493178773103373 2 54.325387126330597 1 2 47.082562253949391 4.1213272898185878 2 59.257564937021954 5.7117480749785621 2 56.641804922345287 2.4110995279754142 2 45.184971864815587 8.7416108851837446 2 55.145114749123103 11.452106299958711 2 54.878558499244882 2.0279055048951893 2 47.9744235256737 2.8145039980803364 2 58.00122001083394 10.732428634950509 2 57.256544449425562 5.6739985498699586 2 50.995898101586214 5.3085596914540467 2 48.032208172078541 10.197752394952648 2 54.38011887654288 6.3603841674658153 2 49.871145545054524 2.890952851009621 2 63.766884056801985 11.50848849850081 2 49.116101494030481 1 2 55.18912089608348 9.8687241765488487 2 45.936845354549604 12.124622771210033 2 52.551384892299211 7.939295288493466 2 56.694709854535645 4.8313664254503417 2 49.578495953311446 1 2 49.978637911224951 5.7805085118274881 2 49.373269781066462 7.2307934519033079 2 50.209891684653357 7.4579491944298013 2 54.112033063191006 2.9721966257672103 2 41.649109089452303 11.775408560088398 2 55.036307074554514 4.6578298040557984 2 48.015961590377444 3.723261777079061 2 58.831174369681548 7.9326510632842959 2 57.1772203051624 1.9999223657573268 2 57.031287164970223 10.343643980791965 2 53.097200163062602 1 2 60.198049806649124 9.2228514813372175 2 48.926670924288452 5.5829345911675334 2 54.621942454534548 3.8207056954408611 2 51.332316860494721 1 2 53.147663476130191 7.3247079016835812 2 51.476455992164212 3.4991663769982591 2 58.27981317783015 5.902203436531571 2 53.154714895935733 2.7330552469183096 2 49.767269605637772 10.060142765889829 2 54.154018019937666 7.2966449296305544 2 55.502739667463231 2.3419555163827335 2 49.856751026380792 4.2855925843481861 2 47.812267837385434 6.7741187513366361 2 52.016065870728056 10.400460231139323 2 </DataArray>
</Points>
<Cells>
<DataArray Name="connectivity" format="ascii" type="Int32">0</DataArray>
<DataArray Name="offsets" format="ascii" type="Int32">0</DataArray>
<DataArray Name="types" format="ascii" type="UInt8">1</DataArray>
</Cells>
<PointData>
<DataArray Name="Points" NumberOfComponents="3" format="ascii" type="Float32">51.404690609170508 4.5328470624031079 2 52.108576018845326 1.8326654416198858 2 58.014569411654762 7.3064001927481232 2 44.377685208038521 7.5610911076344678 2 53.404191474159902 9.7865323493882528 2 53.907859148100009 1 2 19.267443979262598 9.3452453590704412 2 46.66300691925337 2.8454944790648855 2 58.336281466015521 9.0823280479626813 2 58.882036246632936 4.9464874797045537 2 60.059394442436087 6.3894280747051395 2 50.669183828855687 3.1008221331908654 2 47.56826856485754 7.8476982454338247 2 54.602656916722125 5.5350636509294233 2 50.889775032172118 1 2 62.578869477884076 9.7008682845143817 2 56.287578840904494 8.2398778641845212 2 56.471674320845494 1 2 45.270347894566108 10.259381555144239 2 51.977386361095455 8.48527656212163 2 56.275473549529593 3.4390732262764567 2 49.623859865727468 1.761321379294581 2 48.905518015696913 4.3441559494319879 2 51.614680177878398 6.2189899344232353 2 50.720458199405215 8.0495560121117613 2 53.261712618632792 4.5798373743667291 2 42.724128453197267 9.2667594280702925 2 55.401182503229649 3.1205630462273732 2 46.274950329502445 7.7444821015951373 2 56.508796153502757 11.820357303879669 2 53.505651363818686 1 2 60.903125530889987 10.551848722143463 2 48.190943509264656 4.4701980797053036 2 56.396091167527729 5.5957258295334178 2 49.194216883062253 2.8190194836567017 2 46.948929936262758 6.9055707299246789 2 52.783934587915695 5.5196558013607611 2 51.364561833184702 1.9374073591979424 2 56.047352935045225 7.3469114680618022 2 55.162257402463197 1 2 48.893283012541772 11.129547175761253 2 55.045059847190721 7.6654387857713466 2 56.066077976223305 1.7207575071154002 2 48.65242787825472 1 2 48.812484543523546 3.5676636284417356 2 49.420318802844385 6.367016341909312 2 52.483549942489589 11.774197636737775 2 51.994540897751264 3.9245345639666334 2 52.946892748119332 1.9852111392273291 2 58.847355866224149 6.5310294811241381 2 46.088374112978187 8.626812477165485 2 53.869038014822223 10.90276553573055 2 55.572656063579863 1 2 47.664347356497984 1.9781863528097758 2 58.939345286163075 9.770562321105043 2 57.904661714680721 5.1580767605474245 2 50.738168265528152 3.9623666232245451 2 46.871437348587143 9.4242605482849093 2 55.464624573555888 5.8879564231920609 2 50.03848759239235 1 2 62.247906305796612 11.042219060625055 2 48.312804764255404 1.4437129563827402 2 55.274187019090618 8.6651297892059311 2 46.705756526110591 10.82425778845257 2 51.936451263140604 7.1311406641788997 2 57.533513204095577 4.5158045255937234 2 50.464010297379971 1 2 50.688221522988322 6.0818483525993514 2 51.057291973760414 6.9888327432605193 2 49.092000921180841 8.2669735596158578 2 53.460184379446382 3.5517312268984442 2 43.003607807519408 10.825724561154317 2 54.206378805911967 4.7768244906127082 2 47.070217023122346 3.444472792728428 2 59.691022577486748 8.3242266423181537 2 56.013996940914758 1 2 56.259134787847572 9.7573067376887792 2 52.255089970783402 1 2 48.275712525873587 5.7030575072147061 2 55.69222467826156 5.0611264425131637 2 50.725007701234894 2.1579666842339082 2 53.443783340457053 6.3984019358606341 2 52.542464411670835 2.6687927719925804 2 57.607967715665886 6.4892514163146986 2 54.730435829560939 2.7659557711564986 2 49.151128155442038 9.0908480540767425 2 53.82491313609259 8.2078611620929127 2 54.737788223805325 1 2 49.766927128593103 3.6483465998493454 2 48.531633186305939 7.1696607840262869 2 50.862660208065094 9.8561085718902106 2 52.490997804469018 4.6094218754950331 2 51.775573488745366 1 2 59.387049716365752 7.1919820893631305 2 44.169352744215985 8.5995505761073368 2 54.075468971377759 9.0520874904087361 2 52.679732359564198 1 2 57.113033259263993 8.9190345207201478 2 52.03961105597898 2.8699033054686938 2 47.828540362937083 8.6975000084644112 2 53.661005704391876 5.4970935602315967 2 50.145471253097298 2.3180795982665394 2 63.789552885422431 9.9103867081640189 2 47.332508594612328 2.6168752473621573 2 57.676733802506199 8.1730280998997618 2 57.308467911340109 1 2 43.961682718699016 9.833558198763626 2 52.420142488878106 9.2848691017766871 2 55.370382888023222 3.8581160727194117 2 48.056812459167837 1 2 50.423326012767902 4.7638794216986575 2 56.891028864471174 4.0069927749109526 2 52.534238639579605 6.2972088371056358 2 50.813504975737544 8.8351709471001527 2 53.912051800908351 4.0187221501389354 2 43.335772388584758 7.9759653892303062 2 56.017863679877479 4.2355507549093083 2 56.0945174833046 2.6179895752338767 2 58.23988440276753 12.228625367099955 2 53.701366862910206 2.3487561608006655 2 59.625927355182917 11.009153855474905 2 56.355002941705742 6.4325039269403614 2 48.983914588579097 2.1358705968227749 2 47.607407854074658 5.7161916865663169 2 51.937579133188422 5.2705739239829601 2 51.346142137141555 2.6538469811447087 2 56.978440933112225 7.1568904144148231 2 54.183539749517692 1.9744546364560032 2 49.422758414142699 12.59610331247676 2 55.196983537803789 6.685586901121364 2 47.583908082703616 1 2 48.458444111465475 2.6077750821915999 2 49.373368576219164 4.9934105392239951 2 50.748903365322192 11.500719531989718 2 52.730198301980408 3.7493178773103373 2 54.325387126330597 1 2 47.082562253949391 4.1213272898185878 2 59.257564937021954 5.7117480749785621 2 56.641804922345287 2.4110995279754142 2 45.184971864815587 8.7416108851837446 2 55.145114749123103 11.452106299958711 2 54.878558499244882 2.0279055048951893 2 47.9744235256737 2.8145039980803364 2 58.00122001083394 10.732428634950509 2 57.256544449425562 5.6739985498699586 2 50.995898101586214 5.3085596914540467 2 48.032208172078541 10.197752394952648 2 54.38011887654288 6.3603841674658153 2 49.871145545054524 2.890952851009621 2 63.766884056801985 11.50848849850081 2 49.116101494030481 1 2 55.18912089608348 9.8687241765488487 2 45.936845354549604 12.124622771210033 2 52.551384892299211 7.939295288493466 2 56.694709854535645 4.8313664254503417 2 49.578495953311446 1 2 49.978637911224951 5.7805085118274881 2 49.373269781066462 7.2307934519033079 2 50.209891684653357 7.4579491944298013 2 54.112033063191006 2.9721966257672103 2 41.649109089452303 11.775408560088398 2 55.036307074554514 4.6578298040557984 2 48.015961590377444 3.723261777079061 2 58.831174369681548 7.9326510632842959 2 57.1772203051624 1.9999223657573268 2 57.031287164970223 10.343643980791965 2 53.097200163062602 1 2 60.198049806649124 9.2228514813372175 2 48.926670924288452 5.5829345911675334 2 54.621942454534548 3.8207056954408611 2 51.332316860494721 1 2 53.147663476130191 7.3247079016835812 2 51.476455992164212 3.4991663769982591 2 58.27981317783015 5.902203436531571 2 53.154714895935733 2.7330552469183096 2 49.767269605637772 10.060142765889829 2 54.154018019937666 7.2966449296305544 2 55.502739667463231 2.3419555163827335 2 49.856751026380792 4.2855925843481861 2 47.812267837385434 6.7741187513366361 2 52.016065870728056 10.400460231139323 2 </DataArray>
<DataArray Name="forces" NumberOfComponents="3" format="ascii" type="Float32">-0.043493186938662387 0.5762550144289551 0.0 0.1391496291626752 0.82411084507508492 0.0 -0.049829436051376894 0.59924237542360592 0.0 0.090465689449276576 0.64025498646106449 0.0 0.0031885302636321389 0.61693505109428293 0.0 -0.028237582602937607 -2.6362701841781897 0.0 -0.083765318371791381 0.80444741948784371 0.0 -0.12129262568551651 0.55637850690844637 0.0 -0.030625529927870127 0.64327068044265767 0.0 -0.052833682066942139 0.66720520786869941 0.0 -0.0087602269204541672 0.71401012997976765 0.0 -0.050483964775093593 0.482544428598638 0.0 -0.016416035171838567 0.63647721867266149 0.0 0.11885719062430516 0.63051522658958281 0.0 -0.0091530738648106791 -2.941887287106328 0.0 -0.083086557551523166 0.66208994657243758 0.0 0.014144907758167187 0.77960307655897754 0.0 -0.052605349735691087 -3.1271494023784747 0.0 -0.053791937703669787 0.74951685853893146 0.0 -0.15820129820644765 0.68616278842168077 0.0 -0.084733624837548649 0.55329516574468762 0.0 0.031944089835345607 0.57689632534209367 0.0 -0.06087749204026216 0.54622069042526145 0.0 0.043392045537471169 0.67379096321353205 0.0 0.0093778258179466611 0.59304627109876662 0.0 -0.090566874757043142 0.56706861802906561 0.0 -0.068095643540159179 0.71474551909039907 0.0 -0.087241004917615633 0.57276440653642013 0.0 0.0055046938095268394 0.71927087118309074 0.0 0.082104631514475779 0.60060354700591301 0.0 -0.054648927584614052 -2.7099285413855916 0.0 0.019266748099673853 0.58282421969113529 0.0 -0.0024036276625861719 0.62487186806345185 0.0 -0.096252642423728704 0.63164085474228671 0.0 -0.081899284576062714 0.49567662801583184 0.0 -0.040234885439354606 0.81760372626290023 0.0 0.032576213173921974 0.5072700365960412 0.0 0.04029610168718388 0.40102171369652245 0.0 0.077221106507055853 0.61408930839299991 0.0 -0.0099685610539393399 -2.7715012838892674 0.0 -0.15029171599029822 0.57697458012477887 0.0 0.018268520479059358 0.74241013305347447 0.0 0.0092628908457899062 0.5716894370634843 0.0 -0.067400459819979552 -3.3941254880376031 0.0 0.098776255914188371 0.47554775451313253 0.0 -0.013720096950276039 0.62059999587328007 0.0 0.12172176437027374 0.75321040208712398 0.0 0.024224634902571707 0.5184758577942985 0.0 0.13531680169654769 0.33576072991854211 0.0 -0.032610412665755928 0.78914439369393374 0.0 -0.078346146507702857 0.74506130910961366 0.0 -0.14662829784615469 0.65391174366271854 0.0 0.0042836747928005625 -2.9700561384994013 0.0 0.088214887132358533 0.61037100794010213 0.0 0.16390136793153598 0.5602809075799402 0.0 -0.010557774701243052 0.62822678987309599 0.0 -0.029824991332971784 0.51543833828996177 0.0 -0.15516095235959726 0.62379386547989213 0.0 -0.021351686013842304 0.66823852220463753 0.0 -0.073239006326552669 -2.9435203983416858 0.0 -0.080210685727368614 0.72417248926152189 0.0 0.088096681127976306 0.37720162308174554 0.0 0.016935965186606949 0.61104367783929625 0.0 0.11963839535095011 0.55184342045985502 0.0 0.012933402039959851 0.744521694827873 0.0 -0.007388789486245273 0.56278834425222546 0.0 -0.030673761233706465 -2.8003893673476776 0.0 -0.13745121530363891 0.79387053327346335 0.0 -0.034718152814310232 0.67448514310012375 0.0 0.0034660038553708632 0.6811663884715714 0.0 -0.036339824460734971 0.56886476345811532 0.0 0.056054168014965378 0.69202314992133673 0.0 -0.047929122035780813 0.56758052065308096 0.0 0.089818284266901027 0.58026515457123418 0.0 0.079536148293653408 0.61805468676916253 0.0 -0.022761766978051379 -3.2347651839974536 0.0 -0.13175063449962843 0.70981277575294488 0.0 -0.12211620658707675 -2.9550225230968961 0.0 -0.048968162145871519 0.64602455238046375 0.0 -0.011440839557849192 0.53396716404363076 0.0 -0.0011738704201177397 0.34894458028829373 0.0 -0.024221864311957941 0.54254682488983907 0.0 0.0074324283894344756 0.44042843347146565 0.0 0.030709098640826049 0.57322016974101242 0.0 0.023310567367479607 0.4246106103474353 0.0 -0.048619797203356518 0.55794428711858024 0.0 -0.092845185040008715 0.57469583017389048 0.0 -0.011764802443871764 -2.8275918043934758 0.0 0.074688797950356572 0.52233183628696667 0.0 -0.0066994364325319022 0.68803677742639446 0.0 -0.053203514325974921 0.69435417635167263 0.0 -0.14150918153932782 0.56370021750361476 0.0 -0.036730686500694887 -3.1127337491767704 0.0 0.030585881060523207 0.74049819265654704 0.0 -0.0953880299649906 0.65617775256045296 0.0 0.054879072187843381 0.60731105874016944 0.0 -0.11229788497677974 -2.8996445754493059 0.0 0.051978895109396218 0.68299969328762988 0.0 -0.1347945047551532 0.38245332300369528 0.0 -0.047543721996411908 0.6086928104346403 0.0 0.03930156848334649 0.52064874856226107 0.0 -0.039451610700401006 0.38012591244125787 0.0 -0.092363761393423199 0.74576787172391401 0.0 -0.096064724436018212 0.46360693463262909 0.0 0.12448457702132076 0.61538176530255084 0.0 -0.023703733097413138 -2.8946030952421098 0.0 0.041532211540323383 0.64133029964089228 0.0 0.079020552732555038 0.57902127508577861 0.0 -0.017681363430463205 0.66021630628156935 0.0 -0.092702707408956808 -3.7007712703669893 0.0 0.0028565824191264522 0.61906533652911466 0.0 -0.0035882822118832314 0.52442802327305471 0.0 0.030578875979975009 0.6568494825067096 0.0 -0.10935200419880785 0.66796956265671148 0.0 -0.016118039133262319 0.55610574990339146 0.0 0.027907239652395846 0.69880243662228803 0.0 0.027094202828886638 0.54982651478930666 0.0 -0.020059640505236676 0.51788759093867032 0.0 0.18461127539003819 0.63335968002180332 0.0 -0.083512700710390769 0.33741434049416097 0.0 0.10375469252918557 0.80754639687694119 0.0 0.055349897759168001 0.62285904929046665 0.0 -0.078116041645612241 0.43283827905459049 0.0 -0.12289306513677242 0.787153743022309 0.0 -0.12626834033940448 0.77534267487968611 0.0 -0.13955432318242586 0.51674958452194097 0.0 -0.012880655398465973 0.76662145092552603 0.0 0.0070635095338515974 0.43180551911418419 0.0 -0.067167594098472005 0.5953687311650927 0.0 0.00028296082635803632 0.83569543974416227 0.0 -0.024619703116397273 -3.2587507671090723 0.0 -0.11835011352617236 0.4016639709972476 0.0 -0.017687436867591333 0.605334944037492 0.0 -0.04137633470854829 0.57614964982770189 0.0 -0.085494045365890392 0.46102023838086581 0.0 0.0028722344568945235 -2.7974996459885308 0.0 -0.10129898524952197 0.63152263640331396 0.0 0.032505286295657854 0.71497030441612197 0.0 0.02422512509285038 0.52006297899977649 0.0 -0.078441900393527345 0.6549142269167465 0.0 -0.022430867266848786 0.50190836402473582 0.0 -0.0083857009925598636 0.47715415615549661 0.0 -0.063579144471788515 0.61644006045504729 0.0 0.070945122536846039 0.50592752324892942 0.0 -0.037874411275167441 0.64220008881055946 0.0 0.041054272385763091 0.68933582138856853 0.0 -0.0070246395801840666 0.37015742061815859 0.0 0.015873677009187875 0.56896601490200926 0.0 -0.030348585608161695 0.46136453215143736 0.0 -0.011199313072534595 0.70560610949844915 0.0 -0.021591191215462269 -3.1180624651502402 0.0 -0.1145690788541069 0.65506796513303889 0.0 -0.24459804536312624 0.43188152326921447 0.0 0.021384800180617114 0.69371969281779444 0.0 0.072500384798685313 0.6439849931966235 0.0 -0.061149307278786535 -3.1486665052987259 0.0 0.0072831079638633126 0.532437159573101 0.0 -0.17760559306934182 0.75054662873875355 0.0 -0.067959536590385783 0.53585020075007417 0.0 -0.022075288609225585 0.43310785046886757 0.0 -0.067649711736466334 0.71867401669319031 0.0 -0.085071201738221747 0.55317470335540719 0.0 0.072689015748608782 0.6874644937567308 0.0 0.014773752389895492 0.70064879566249794 0.0 -0.0084448769232631227 0.33429923948942797 0.0 -0.0026107247189060406 0.58756762549558694 0.0 -0.086880352059243382 -2.7972280808210686 0.0 0.0020080002765728439 0.73230463895984033 0.0 -0.016992416893456541 0.60453396601341436 0.0 -0.088869107043142659 0.38340167323718433 0.0 -0.0059212118917953971 -2.946327579607785 0.0 0.03846770020270629 0.58720663597410072 0.0 -0.035817811743877687 0.6508123227409589 0.0 0.054167452945227165 0.60972111219237679 0.0 -0.012635206206741745 0.58987043254765437 0.0 -0.13733287504653996 0.53343452979462147 0.0 0.024431212273212877 0.57189034933842209 0.0 0.022828242375524138 0.38646561096132315 0.0 -0.017159669412401879 0.59067314700898454 0.0 0.015999794044932847 0.55580542653807619 0.0 -0.057541955998252986 0.62067635966037926 0.0 </DataArray>
<DataArray Name="radii" format="ascii" type="Float32">1 1 1 1 1 1 1 1 1 1 1 1 1 1 1 1 1 1 1 1 1 1 1 1 1 1 1 1 1 1 1 1 1 1 1 1 1 1 1 1 1 1 1 1 1 1 1 1 1 1 1 1 1 1 1 1 1 1 1 1 1 1 1 1 1 1 1 1 1 1 1 1 1 1 1 1 1 1 1 1 1 1 1 1 1 1 1 1 1 1 1 1 1 1 1 1 1 1 1 1 1 1 1 1 1 1 1 1 1 1 1 1 1 1 1 1 1 1 1 1 1 1 1 1 1 1 1 1 1 1 1 1 1 1 1 1 1 1 1 1 1 1 1 1 1 1 1 1 1 1 1 1 1 1 1 1 1 1 1 1 1 1 1 1 1 1 1 1 1 1 1 1 1 1 1 1 1 1 1 1 1 </DataArray>
</PointData>
<CellData/>
</Piece>
</UnstructuredGrid>
</VTKFile>
