<?xml version="1.0" ?>
<VTKFile byte_order="LittleEndian" type="UnstructuredGrid" version="0.1">
<UnstructuredGrid>
<Piece NumberOfCells="0" NumberOfPoints="55">
<Points>
<DataArray NumberOfComponents="3" format="ascii" type="Float32">22.462712877463552 1 2 26.370611121940609 4.7863423595728767 2 46.422130206481803 1.5202420508370302 2 53.513224180541854 2.379890782142418 2 60.569262930306508 2.0899888893879948 2 13.908840784196531 4.5606557347584147 2 17.896318224317024 5.4785408205995392 2 42.600436048059436 2.9846785183033311 2 46.193299806038205 5.3736156405026101 2 52.028140036304855 1 2 61.371662756517814 3.833642313756509 2 64.726835307933413 3.9284953077745643 2 99.0 2.8508066686326856 2 12.406065314305646 1 2 17.26182746670197 2.173738467018647 2 23.798845922001615 2.4510908435963885 2 48.228484054350915 1 2 55.734744531003884 4.7605725087868125 2 56.950870396793036 1 2 15.455919211885085 3.1357024933240774 2 19.803964543546805 4.8950409619959609 2 39.618938560630482 1 2 49.445219550210133 4.9798458251288817 2 53.266414327002494 4.2691889597685799 2 62.147124862607264 1 2 64.158678154297547 1 2 94.802746973664725 1 2 20.666258233169572 1.7048248031487767 2 25.769016314988093 2.9257534231846312 2 44.433216534858715 1 2 54.905530465897961 1 2 58.81962831678036 1 2 13.595429322613619 2.6234818950003231 2 18.254606884903609 7.4464235598968536 2 42.479765742398463 1 2 46.784878688530604 3.4508653768344071 2 50.230561645174618 1.5613193314724445 2 59.886796449786573 5.1860999010849191 2 63.3829117038673 5.4144546729399927 2 98.279790949511394 1 2 11.565282581815055 2.7933792905511892 2 18.751909555695242 1 2 25.184350743373447 1 2 48.716416440707725 2.9472507103497825 2 56.090166940485624 2.8330346610985084 2 58.115315070074693 2.8334686845150139 2 15.622029077235108 1 2 21.301183561587148 3.5582898296164016 2 27.196260772726237 1 2 40.647898783154822 2.7205493877158635 2 50.746998616890927 3.4511359980635072 2 51.679414000378301 5.5170497224050337 2 63.155497161760245 2.7432109817707842 2 65.879451742364864 2.0007965001853463 2 96.543625248604073 1.9756435207181167 2 </DataArray>
</Points>
<Cells>
<DataArray Name="connectivity" format="ascii" type="Int32">0</DataArray>
<DataArray Name="offsets" format="ascii" type="Int32">0</DataArray>
<DataArray Name="types" format="ascii" type="UInt8">1</DataArray>
</Cells>
<PointData>
<DataArray Name="Points" NumberOfComponents="3" format="ascii" type="Float32">22.462712877463552 1 2 26.370611121940609 4.7863423595728767 2 46.422130206481803 1.5202420508370302 2 53.513224180541854 2.379890782142418 2 60.569262930306508 2.0899888893879948 2 13.908840784196531 4.5606557347584147 2 17.896318224317024 5.4785408205995392 2 42.600436048059436 2.9846785183033311 2 46.193299806038205 5.3736156405026101 2 52.028140036304855 1 2 61.371662756517814 3.833642313756509 2 64.726835307933413 3.9284953077745643 2 99.0 2.8508066686326856 2 12.406065314305646 1 2 17.26182746670197 2.173738467018647 2 23.798845922001615 2.4510908435963885 2 48.228484054350915 1 2 55.734744531003884 4.7605725087868125 2 56.950870396793036 1 2 15.455919211885085 3.1357024933240774 2 19.803964543546805 4.8950409619959609 2 39.618938560630482 1 2 49.445219550210133 4.9798458251288817 2 53.266414327002494 4.2691889597685799 2 62.147124862607264 1 2 64.158678154297547 1 2 94.802746973664725 1 2 20.666258233169572 1.7048248031487767 2 25.769016314988093 2.9257534231846312 2 44.433216534858715 1 2 54.905530465897961 1 2 58.81962831678036 1 2 13.595429322613619 2.6234818950003231 2 18.254606884903609 7.4464235598968536 2 42.479765742398463 1 2 46.784878688530604 3.4508653768344071 2 50.230561645174618 1.5613193314724445 2 59.886796449786573 5.1860999010849191 2 63.3829117038673 5.4144546729399927 2 98.279790949511394 1 2 11.565282581815055 2.7933792905511892 2 18.751909555695242 1 2 25.184350743373447 1 2 48.716416440707725 2.9472507103497825 2 56.090166940485624 2.8330346610985084 2 58.115315070074693 2.8334686845150139 2 15.622029077235108 1 2 21.301183561587148 3.5582898296164016 2 27.196260772726237 1 2 40.647898783154822 2.7205493877158635 2 50.746998616890927 3.4511359980635072 2 51.679414000378301 5.5170497224050337 2 63.155497161760245 2.7432109817707842 2 65.879451742364864 2.0007965001853463 2 96.543625248604073 1.9756435207181167 2 </DataArray>
<DataArray Name="forces" NumberOfComponents="3" format="ascii" type="Float32">-0.015470598799601561 -0.03410331716546032 0.0 0.0 0.0 0.0 0.05371781093471923 0.014817433916222899 0.0 0.021061644238566615 0.073352577854272155 0.0 0.064471074718236585 0.056512669525264458 0.0 0.0 0.0 0.0 -3.6850394952656478e-05 -0.00020239897083233993 0.0 0.00074997760981838197 0.012495937412069136 0.0 -0.0030338347818404028 0.0098605727813218906 0.0 -0.057613160389408488 -0.05403795327014313 0.0 0.0055247483926418525 -0.0050320947063292407 0.0 0.0 0.0 0.0 0.0074324899370667849 0.018964762935407605 0.0 -0.028684129664110016 -0.064701021652870408 0.0 0.039165045815973604 -0.011914433106660401 0.0 -0.0089725003126512898 0.02229789692050415 0.0 -0.075763488751531494 -0.043223042423373909 0.0 0.0 0.0 0.0 0.077259108251362438 -0.04102855525447531 0.0 -0.043311374726096419 0.023305332051854769 0.0 -0.0046896877319510012 0.0041870596824219071 0.0 -0.01081773553173594 -0.019027605348941032 0.0 -0.0045051855042603402 0.0052905454768723782 0.0 0.019430029582426817 -0.0011328657294594688 0.0 -0.041733915203177901 -0.041162982944981871 0.0 0.0013747291963206038 -0.020061018576500934 0.0 -0.0077231998718656535 -0.0043542983244368606 0.0 0.048073772307862805 0.027241315407063926 0.0 0.046015308106582234 0.046224121019276823 0.0 -0.05371781093471923 -0.014817433916222899 0.0 -0.021426109423243522 -0.035222999731700143 0.0 -0.07591749153061432 -0.049458381308436369 0.0 0.036978419539873485 0.050269033332747737 0.0 3.6850394952656478e-05 0.00020239897083233993 0.0 -0.00074997760981838197 -0.012495937412069136 0.0 0.0030338347818404028 -0.0098605727813218906 0.0 0.071392238764698912 0.021095777777330883 0.0 -0.0055247483926418525 0.0050320947063292407 0.0 0.0 0.0 0.0 0.0020017798282758433 -0.024290690503863663 0.0 -0.0020350998208658491 0.020978236914173765 0.0 -0.050398848860633769 -0.030103866725793391 0.0 -0.0096307811299197309 -0.038827737607916211 0.0 0.0043712499868325781 0.022127264646043025 0.0 -0.017301241745273518 0.04102855525447531 0.0 0.0 0.0 0.0 -0.0054700224015158836 -0.0041193107928693433 0.0 0.0046896877319510012 -0.0041870596824219071 0.0 -0.0038471596556047542 -0.013576683994990088 0.0 0.03726400625943798 0.012642084737918714 0.0 0.0045051855042603402 -0.0052905454768723782 0.0 -0.021410270514430341 0.017041240877030579 0.0 0.018428434825606563 0.034626967921070055 0.0 0.027833876686241654 0.020954743979949574 0.0 -0.0017110698934769747 0.0096802258928929165 0.0 </DataArray>
<DataArray Name="radii" format="ascii" type="Float32">1 1 1 1 1 1 1 1 1 1 1 1 1 1 1 1 1 1 1 1 1 1 1 1 1 1 1 1 1 1 1 1 1 1 1 1 1 1 1 1 1 1 1 1 1 1 1 1 1 1 1 1 1 1 1 </DataArray>
</PointData>
<CellData/>
</Piece>
</UnstructuredGrid>
</VTKFile>
