<?xml version="1.0" ?>
<VTKFile byte_order="LittleEndian" type="UnstructuredGrid" version="0.1">
<UnstructuredGrid>
<Piece NumberOfCells="0" NumberOfPoints="18">
<Points>
<DataArray NumberOfComponents="3" format="ascii" type="Float32">0 0 0 10.765107474708579 1.2 2 25.922984315193393 6.9267992499078455 2 38.575898037399234 4.6451443673484265 2 68.438246920141182 3.6183200610802531 2 93.086883515159712 3.7079231740707939 2 10.950751770055756 6.049128363929122 2 29.930864399937143 1.2 2 68.51246608053026 6.2567962350549591 2 36.391532657400376 1 2 67.134830307274271 1.4 2 93.892595190223901 5.3972211039305265 2 28.686024856734445 3.6391572286306899 2 38.139758510005414 1.4 2 96.234039621318018 1.2 2 26.488635779737695 4.1786220350219381 2 10.887784281600601 3.4071114036810739 2 95.758228476349103 3.7479587925343809 2 </DataArray>
</Points>
<Cells>
<DataArray Name="connectivity" format="ascii" type="Int32">0</DataArray>
<DataArray Name="offsets" format="ascii" type="Int32">0</DataArray>
<DataArray Name="types" format="ascii" type="UInt8">1</DataArray>
</Cells>
<PointData>
<DataArray Name="Points" NumberOfComponents="3" format="ascii" type="Float32">0 0 0 10.765107474708579 1.2 2 25.922984315193393 6.9267992499078455 2 38.575898037399234 4.6451443673484265 2 68.438246920141182 3.6183200610802531 2 93.086883515159712 3.7079231740707939 2 10.950751770055756 6.049128363929122 2 29.930864399937143 1.2 2 68.51246608053026 6.2567962350549591 2 36.391532657400376 1 2 67.134830307274271 1.4 2 93.892595190223901 5.3972211039305265 2 28.686024856734445 3.6391572286306899 2 38.139758510005414 1.4 2 96.234039621318018 1.2 2 26.488635779737695 4.1786220350219381 2 10.887784281600601 3.4071114036810739 2 95.758228476349103 3.7479587925343809 2 </DataArray>
<DataArray Name="forces" NumberOfComponents="3" format="ascii" type="Float32">0 0 0 0.029323795385469524 -0.5176782936841553 0.0 -0.045650826690373486 0.19270363417266059 0.0 -0.052604927708255589 0.30801456408826317 0.0 0.036197916792372498 0.12564752800134188 0.0 0.092695778535570872 0.10247477234853894 0.0 -0.073064096799693348 0.29249619183574838 0.0 0.003253189684224278 -0.23853506041055286 0.0 0.050323560892000255 0.29795207600231799 0.0 -0.030097397401268551 -0.53652337806851602 0.0 0.027963127943425245 -0.384796066929464 0.0 -0.026371628013566788 0.19468939805757665 0.0 -0.011046494106617566 0.095444978932454183 0.0 -0.029728930457138536 -0.25310191108185576 0.0 0.0097513692406309069 -0.4240928260304232 0.0 0.00024175883911639606 0.29894758099361673 0.0 -0.02221591753622737 0.13240422001606389 0.0 -0.061191729659789473 0.34974926900983538 0.0 </DataArray>
<DataArray Name="radii" format="ascii" type="Float32">0 1.2 1.4 1.4 1.2 1 1.5999999999999999 1.2 1.5999999999999999 1 1.4 1 1 1.4 1.2 1.5999999999999999 1.2 1.5999999999999999 </DataArray>
</PointData>
<CellData/>
</Piece>
</UnstructuredGrid>
</VTKFile>
