<?xml version="1.0" ?>
<VTKFile byte_order="LittleEndian" type="UnstructuredGrid" version="0.1">
<UnstructuredGrid>
<Piece NumberOfCells="0" NumberOfPoints="20">
<Points>
<DataArray NumberOfComponents="3" format="ascii" type="Float32">6.7846010502741292 1.5999999999999999 2 32.560483491706165 1.5999999999999999 2 75.770534085408642 1.5999999999999999 2 78.575736980211786 1.5999999999999999 2 88.427125707220185 4.3468484653519974 2 3.0981957590283993 1.5999999999999999 2 35.482226780334052 1.5999999999999999 2 70.257106948565621 1.5999999999999999 2 84.080915806754504 1.5999999999999999 2 85.273081736568969 4.3766165564586252 2 9.0317919797375712 3.7978978114433386 2 30.33615201250317 3.84159374646348 2 74.189023356302613 4.370892779185394 2 77.328124540951649 4.3684440355573217 2 89.808926176987853 1.5999999999999999 2 4.9625152692933341 4.1043325334699761 2 34.996475265350455 4.599339689679911 2 72.977543753208053 1.5999999999999999 2 81.322708802589815 1.5999999999999999 2 86.921821373226081 1.5999999999999999 2 </DataArray>
</Points>
<Cells>
<DataArray Name="connectivity" format="ascii" type="Int32">0</DataArray>
<DataArray Name="offsets" format="ascii" type="Int32">0</DataArray>
<DataArray Name="types" format="ascii" type="UInt8">1</DataArray>
</Cells>
<PointData>
<DataArray Name="Points" NumberOfComponents="3" format="ascii" type="Float32">6.7846010502741292 1.5999999999999999 2 32.560483491706165 1.5999999999999999 2 75.770534085408642 1.5999999999999999 2 78.575736980211786 1.5999999999999999 2 88.427125707220185 4.3468484653519974 2 3.0981957590283993 1.5999999999999999 2 35.482226780334052 1.5999999999999999 2 70.257106948565621 1.5999999999999999 2 84.080915806754504 1.5999999999999999 2 85.273081736568969 4.3766165564586252 2 9.0317919797375712 3.7978978114433386 2 30.33615201250317 3.84159374646348 2 74.189023356302613 4.370892779185394 2 77.328124540951649 4.3684440355573217 2 89.808926176987853 1.5999999999999999 2 4.9625152692933341 4.1043325334699761 2 34.996475265350455 4.599339689679911 2 72.977543753208053 1.5999999999999999 2 81.322708802589815 1.5999999999999999 2 86.921821373226081 1.5999999999999999 2 </DataArray>
<DataArray Name="forces" NumberOfComponents="3" format="ascii" type="Float32">0.01963980231967833 -0.12274723181880917 0.0 -0.010871378981951129 0.0073114886220236944 0.0 0.0054534955413488295 -0.027718631255531621 0.0 0.0091261652502620527 -0.14885797171319437 0.0 0.022419125611276139 0.17019463584938763 0.0 -0.046036130271139827 -0.06235103888345777 0.0 -0.015558729842667113 -0.13663852985365516 0.0 -0.00045650029313626383 0.0091154149965496055 0.0 0.012834226847080132 -0.16335648234272604 0.0 0.024790750345692815 0.16380931560543358 0.0 0.0097878545886719397 0.18043623200878883 0.0 -0.013659271966264222 0.1693280771642075 0.0 0.0047461121745652479 0.16874985780038651 0.0 0.0052126944349030618 0.16868120963992553 0.0 0.012561061710771149 -0.13979193678178858 0.0 -0.014046074364315826 0.14564562443179849 0.0 -0.03634933947379522 0.1627860688451955 0.0 0.0019788436241513913 -0.16085446447158605 0.0 0.011620365718854941 0.0 0.0 0.014023071954287869 -0.0602767134178952 0.0 </DataArray>
<DataArray Name="radii" format="ascii" type="Float32">1.5999999999999999 1.5999999999999999 1.5999999999999999 1.5999999999999999 1.5999999999999999 1.5999999999999999 1.5999999999999999 1.5999999999999999 1.5999999999999999 1.5999999999999999 1.5999999999999999 1.5999999999999999 1.5999999999999999 1.5999999999999999 1.5999999999999999 1.5999999999999999 1.5999999999999999 1.5999999999999999 1.5999999999999999 1.5999999999999999 </DataArray>
</PointData>
<CellData/>
</Piece>
</UnstructuredGrid>
</VTKFile>
