<?xml version="1.0" ?>
<VTKFile byte_order="LittleEndian" type="UnstructuredGrid" version="0.1">
<UnstructuredGrid>
<Piece NumberOfCells="0" NumberOfPoints="66">
<Points>
<DataArray NumberOfComponents="3" format="ascii" type="Float32">0 0 0 10.861082766499436 1.2 2 24.390182036026779 1 2 25.130631412357083 9.2100633608904996 2 37.972406984332807 7.3222243227808219 2 67.283395596026665 3.895822640364635 2 94.715125762440408 6.7746109706106914 2 10.272953059897846 6.2849181386799797 2 28.759111004056273 1.2 2 68.320022840529433 10.006596797659872 2 98.6 6.6586887866341726 2 12.313497402961943 2.7891420369427875 2 23.938540530755066 4.576027817000937 2 37.97226439405042 1 2 67.346748470289242 1.4 2 97.828810388983428 8.8030073411785708 2 29.377544805569094 5.3825669490925687 2 39.03401827957768 1.4 2 64.526900262320069 2.1052492516554988 2 65.154806307949897 1 2 96.962798982681107 1.2 2 26.739789624568299 3.2588183515271454 2 41.136666411271236 2.5666756548031251 2 12.874974155094806 4.0443739595817751 2 38.501973009529628 5.4563922508799436 2 99.0 4.5239581608648125 2 9.9115338092681231 4.7978545438300104 2 25.044924448932253 3.4931044642991456 2 15.355966707430547 1.4 2 28.254923671531955 3.8232366007895742 2 39.660044685011307 6.7294872959819418 2 66.943338134756573 5.3909123317130057 2 98.417701108544662 3.4739401679986068 2 23.330976313908316 1.2 2 97.818362325301024 5.0696320543299809 2 11.874820125928373 1 2 14.603041510278201 2.876126061757549 2 25.040889799157263 5.6167192935583303 2 13.089020179623889 7.4700998922118487 2 24.428507533483213 6.9626854538637621 2 65.492459467279176 2.5759168391563954 2 40.165560249237146 2.8890823172628868 2 12.026136530907918 5.9569144399946072 2 40.114780402919386 1 2 99.0 1 2 25.7891018942824 1 2 14.440957341333764 1 2 27.41970017956449 1 2 41.034391256344023 5.7218124134567088 2 64.779817310383081 3.5325796760858332 2 68.118213910389159 8.2622934444041274 2 23.983696179622434 2.6200018631846183 2 42.061233769679298 3.9365133577257176 2 14.787593347837154 8.7664112660111808 2 64.001234692573433 1.2 2 41.260568761865983 1.4 2 13.660642592638267 5.1421120623788887 2 66.729747048296673 7.0983869610927899 2 22.754819560798325 2.9241853107558109 2 39.478437382914102 8.7922802728375 2 65.709205345101765 4.2987248555656166 2 13.661504248629152 2.9848248232217705 2 67.035082250061492 11.642019849574346 2 97.989733808150191 1 2 13.421936402422538 1 2 40.880997180558438 4.1872868890050974 2 </DataArray>
</Points>
<Cells>
<DataArray Name="connectivity" format="ascii" type="Int32">0</DataArray>
<DataArray Name="offsets" format="ascii" type="Int32">0</DataArray>
<DataArray Name="types" format="ascii" type="UInt8">1</DataArray>
</Cells>
<PointData>
<DataArray Name="Points" NumberOfComponents="3" format="ascii" type="Float32">0 0 0 10.861082766499436 1.2 2 24.390182036026779 1 2 25.130631412357083 9.2100633608904996 2 37.972406984332807 7.3222243227808219 2 67.283395596026665 3.895822640364635 2 94.715125762440408 6.7746109706106914 2 10.272953059897846 6.2849181386799797 2 28.759111004056273 1.2 2 68.320022840529433 10.006596797659872 2 98.6 6.6586887866341726 2 12.313497402961943 2.7891420369427875 2 23.938540530755066 4.576027817000937 2 37.97226439405042 1 2 67.346748470289242 1.4 2 97.828810388983428 8.8030073411785708 2 29.377544805569094 5.3825669490925687 2 39.03401827957768 1.4 2 64.526900262320069 2.1052492516554988 2 65.154806307949897 1 2 96.962798982681107 1.2 2 26.739789624568299 3.2588183515271454 2 41.136666411271236 2.5666756548031251 2 12.874974155094806 4.0443739595817751 2 38.501973009529628 5.4563922508799436 2 99.0 4.5239581608648125 2 9.9115338092681231 4.7978545438300104 2 25.044924448932253 3.4931044642991456 2 15.355966707430547 1.4 2 28.254923671531955 3.8232366007895742 2 39.660044685011307 6.7294872959819418 2 66.943338134756573 5.3909123317130057 2 98.417701108544662 3.4739401679986068 2 23.330976313908316 1.2 2 97.818362325301024 5.0696320543299809 2 11.874820125928373 1 2 14.603041510278201 2.876126061757549 2 25.040889799157263 5.6167192935583303 2 13.089020179623889 7.4700998922118487 2 24.428507533483213 6.9626854538637621 2 65.492459467279176 2.5759168391563954 2 40.165560249237146 2.8890823172628868 2 12.026136530907918 5.9569144399946072 2 40.114780402919386 1 2 99.0 1 2 25.7891018942824 1 2 14.440957341333764 1 2 27.41970017956449 1 2 41.034391256344023 5.7218124134567088 2 64.779817310383081 3.5325796760858332 2 68.118213910389159 8.2622934444041274 2 23.983696179622434 2.6200018631846183 2 42.061233769679298 3.9365133577257176 2 14.787593347837154 8.7664112660111808 2 64.001234692573433 1.2 2 41.260568761865983 1.4 2 13.660642592638267 5.1421120623788887 2 66.729747048296673 7.0983869610927899 2 22.754819560798325 2.9241853107558109 2 39.478437382914102 8.7922802728375 2 65.709205345101765 4.2987248555656166 2 13.661504248629152 2.9848248232217705 2 67.035082250061492 11.642019849574346 2 97.989733808150191 1 2 13.421936402422538 1 2 40.880997180558438 4.1872868890050974 2 </DataArray>
<DataArray Name="forces" NumberOfComponents="3" format="ascii" type="Float32">0 0 0 -0.13627805522339298 -1.5513651936162614 0.0 -0.065497926943545934 -1.4145028877850911 0.0 0.011461618843916332 0.61797047292546814 0.0 -0.027677627266774918 0.64528510661830418 0.0 -0.082509944110472855 0.38201300776599689 0.0 0.14043866172958064 0.32556982555094383 0.0 0.043949134061228412 0.26321745965336629 0.0 0.067726252453876146 -1.6331567791694561 0.0 0.014104951064976445 0.19214365359373542 0.0 1.0394613134321866 0.59620863932634349 0.0 0.16290854980861913 0.075619081913846517 0.0 0.079598009034366868 0.60465610091679178 0.0 0.019151036007784838 -1.5231627253288447 0.0 -0.0034613575321706946 -2.1840040659832001 0.0 0.20374147816463845 0.18090078873111332 0.0 -0.018670621083990757 0.17912421742555895 0.0 0.0085808230369684851 -1.693378293504769 0.0 0.050336249913345288 0.14964709683917043 0.0 0.041559028784560553 -1.6819556774407616 0.0 0.15798319378158257 -1.6945977749076448 0.0 0.0036322931455389992 0.039693461861328716 0.0 -0.088362125037671907 0.42904096101171929 0.0 0.068922662455429939 0.13090116436743482 0.0 0.020810053620359675 0.43527551212058829 0.0 1.0849457812270571 0.29228824882737348 0.0 0.053610634089169218 0.53586896940210949 0.0 0.059715181512868337 0.2860677979723123 0.0 0.088665342450596041 -1.1530290969225498 0.0 0.010564307746312784 0.20250465759046476 0.0 -0.046945310677887139 0.24794227137443989 0.0 -0.0042403026974345871 0.39009385728811752 0.0 0.32859009047777843 0.26139953040245917 0.0 0.0075697235386851247 -1.6759791622784734 0.0 0.039660109999566873 0.19672688115286138 0.0 -0.18595744295867744 -1.4063707862690595 0.0 -0.17380737499839682 0.18391641666930764 0.0 0.043626242470054942 0.14815193719648229 0.0 -0.046636469354826106 0.34515027454909497 0.0 0.070070420720581894 0.41230310912262635 0.0 0.049486347840416611 0.25397968289692696 0.0 -0.055903693752272082 0.36947834892662368 0.0 0.0043188472214433782 0.29046617948819836 0.0 -0.0098980271530019204 -1.4412973849719752 0.0 1.4451851301960583 -1.0290155181710408 0.0 -0.073941849490199441 -1.9557198804035454 0.0 0.10781753350722534 -1.1599113204702916 0.0 0.22869676176953213 -1.8862382827636033 0.0 -0.11270998833589699 0.25126302452163396 0.0 0.029535113758347942 0.29293743455202104 0.0 0.044460143584766632 0.19999817024205305 0.0 0.052115819330138313 0.23261787540216466 0.0 -0.066631819442845241 0.59108424890739752 0.0 0.015354442661724255 0.51889630158335809 0.0 0.032250807626540659 -2.0613944510108944 0.0 -0.069856755324937916 -2.1003367033242171 0.0 -0.010923510450000793 0.53158197102055804 0.0 0.016883172527595691 0.38647260473683187 0.0 0.0079678570627889633 0.61803208758722838 0.0 -0.054590269328761598 0.40009319984251535 0.0 -0.015265459004112435 0.2033870185059545 0.0 -0.10365831756792687 -0.041394305577627355 0.0 0.07516083401949139 0.62972532511136436 0.0 0.11851252503974985 -1.2965856120438013 0.0 0.21219450982195531 -1.2537767092933159 0.0 -0.053586103044617542 0.32893421288767227 0.0 </DataArray>
<DataArray Name="radii" format="ascii" type="Float32">0 1.2 1 1.4 1.4 1.2 1 1 1.2 1 1.4 1 1.4 1 1.4 1 1 1.4 1 1 1.2 1 1.2 1 1.2 1 1.2 1.2 1.4 1 1 1.2 1 1.2 1 1 1.2 1 1.2 1.2 1 1 1.2 1 1 1 1 1 1 1.2 1 1 1.4 1.4 1.2 1.4 1.4 1.2 1.4 1.2 1 1 1.4 1 1 1 </DataArray>
</PointData>
<CellData/>
</Piece>
</UnstructuredGrid>
</VTKFile>
