<?xml version="1.0" ?>
<VTKFile byte_order="LittleEndian" type="UnstructuredGrid" version="0.1">
<UnstructuredGrid>
<Piece NumberOfCells="0" NumberOfPoints="140">
<Points>
<DataArray NumberOfComponents="3" format="ascii" type="Float32">51.862948510572259 5.0717172766876963 2 51.862471147963142 2.4539883888782015 2 45.015680677555935 3.0840463104395952 2 58.114963215370572 8.0298939862499079 2 58.609779000683119 1.4 2 14.906255430402437 5.9207684320469882 2 44.243957939430487 8.4125897798891689 2 53.094599240264948 10.122818296989996 2 53.720335441115488 1.4 2 19.430434788308368 9.6217551452020373 2 47.475003180766777 2.961169683047387 2 57.945959975136759 9.2763082816537548 2 46.048808258832054 5.3111700202445018 2 58.813001291802593 5.4009732618179553 2 59.714055018060961 6.495541282015119 2 51.150802496207639 3.5304552532936184 2 47.884394057217243 8.4652577123589445 2 54.320319502071577 5.5949359288619505 2 19.293698337531776 3.7980322353585514 2 51.225775130901049 1.4 2 63.186217359518317 10.215637967264009 2 46.82994680460947 1.4 2 56.390765989402993 8.6543114705722957 2 56.427494230925568 1.4 2 45.198557999726226 10.567239542411176 2 52.372894081541617 8.747341954908654 2 56.052543211699643 3.7553623213371856 2 44.751066006695275 5.7381453275587537 2 49.405410135780599 1.4 2 61.508923500797039 7.4016311654578102 2 17.785928713523951 1.4 2 49.559285753327721 5.0246140276834579 2 57.067095109508244 3.4897318575884522 2 58.719021578918827 2.6445859191102095 2 51.780152939804921 6.3002784473592675 2 50.865576131725952 8.5463915324379851 2 53.171703301581417 4.7643901249377878 2 18.982431864062761 5.2171398725260199 2 43.407814959264101 9.7411730264395331 2 55.13393011202384 3.5848567430749361 2 16.345478631318983 5.0147026409028594 2 46.186178111178094 3.3715380847935932 2 60.134187576876478 7.6209107837238568 2 57.000703836123449 1.4 2 46.44486720137958 7.7201244797618367 2 56.606507589217998 12.46506686248892 2 53.398415005471328 2.550117748920969 2 18.675916147029088 7.8307464457557492 2 45.47232324426723 1.4 2 60.226618266970185 11.359654439122727 2 48.451884858960675 4.7326890337737844 2 56.44277359034227 5.8026326509921056 2 61.47539330211535 5.9440670174078782 2 49.661663326926792 2.8234337197976567 2 47.340016898555149 6.7474995785353222 2 52.997096440791559 5.8489707613078705 2 51.884804871717357 1.4 2 56.030141334658531 7.4586871174294167 2 54.852355776544961 1.4 2 49.353932617137012 11.930354989690223 2 54.644838335824552 7.5814767284560887 2 18.471681634253144 2.4278669901003544 2 56.137984860579444 2.7828498529268391 2 59.904976938533181 1.4 2 48.735723302403017 1.4 2 62.477717172993316 6.6982895921945769 2 48.62031035462941 3.5636601844266611 2 59.553845363759407 4.4444009396963615 2 49.818271066436246 6.5492881434449508 2 51.954846235863727 12.049895008660497 2 52.132936263165796 3.9755646270263991 2 17.436607725792946 6.8516194548251761 2 53.083767979544191 1.4 2 46.537955923056032 4.2574288986476425 2 58.432186625922469 6.7704640349732523 2 57.45398232160013 1.4 2 22.331380696313882 11.190602000758544 2 45.952047462263948 8.975119679111728 2 54.409626819569752 11.393543544366064 2 55.336100268720514 1.4092109432726208 2 48.089618393980388 1.4 2 58.586999195342507 10.813702359497988 2 45.187804539362524 4.1929840834627896 2 57.703855962919285 5.477892810651074 2 60.312876027238552 5.4633276491917373 2 50.708993716842635 4.4571560859491575 2 47.572564137925902 10.019249954801932 2 55.28556077895955 6.3223889439344783 2 18.077727648821234 3.5862022721108837 2 50.010111682388455 1.4 2 62.331997761774083 11.757947784051924 2 48.590123262510133 2.4345386186972471 2 55.144371111678332 9.4926419340600727 2 58.030907393163865 1.4 2 46.843491469698094 11.921465750479559 2 52.466286751401789 7.4191518575216993 2 57.01110029711095 4.5859165787907719 2 45.837451137655364 6.4913839963700468 2 50.642694002509529 1.4 2 62.291321545801196 8.7397375318541197 2 18.567298701027553 1.4 2 50.633968990811582 5.6857791835052582 2 57.819079999189164 3.1091368978070362 2 20.230884353394654 5.3357662333155638 2 50.910763272466731 7.2637827592365127 2 49.418314290979843 8.4704078954676216 2 53.675275135164192 3.6324511822255374 2 59.447899333536128 3.4273648552215965 2 17.828782820652261 5.4949933572626755 2 42.759830176334823 11.699641950618423 2 54.458001647012331 4.4533166650361915 2 15.259756345380218 4.6428900054089395 2 47.552147346019055 3.9298915722732382 2 59.646188917594074 8.866026675509028 2 55.85922284552742 1.4 2 44.527358722839082 7.2563324929368074 2 56.577204708729923 10.510453601791024 2 52.508157027217763 1.4 2 19.814521092834589 6.87933257107139 2 46.341277257489885 2.3320526761970153 2 60.955715312395483 9.5721852265831817 2 17.066918776375662 4.1634074158091305 2 48.550909337227154 5.9954918662668648 2 55.578154363234312 5.0064983136250003 2 50.649894205248827 2.6928148426118796 2 47.374882348816982 5.4998963228140569 2 46.13737888758105 1.4 2 53.670456806579587 6.8503125573259585 2 52.613867599750847 3.2945803503782995 2 57.176056242847729 6.880287866525177 2 54.522158563793326 2.9138368692185108 2 49.479282922414868 10.07804304446821 2 53.879605151192969 8.6548526533875556 2 54.287515445435716 1.4 2 59.234639630261078 1.4 2 47.4617473275637 1.4 2 49.764386278086867 3.8155205944027908 2 58.321262579085726 4.0723260589930605 2 48.747201666475817 7.3322167597425807 2 51.203237373053632 10.175656975206056 2 </DataArray>
</Points>
<Cells>
<DataArray Name="connectivity" format="ascii" type="Int32">0</DataArray>
<DataArray Name="offsets" format="ascii" type="Int32">0</DataArray>
<DataArray Name="types" format="ascii" type="UInt8">1</DataArray>
</Cells>
<PointData>
<DataArray Name="Points" NumberOfComponents="3" format="ascii" type="Float32">51.862948510572259 5.0717172766876963 2 51.862471147963142 2.4539883888782015 2 45.015680677555935 3.0840463104395952 2 58.114963215370572 8.0298939862499079 2 58.609779000683119 1.4 2 14.906255430402437 5.9207684320469882 2 44.243957939430487 8.4125897798891689 2 53.094599240264948 10.122818296989996 2 53.720335441115488 1.4 2 19.430434788308368 9.6217551452020373 2 47.475003180766777 2.961169683047387 2 57.945959975136759 9.2763082816537548 2 46.048808258832054 5.3111700202445018 2 58.813001291802593 5.4009732618179553 2 59.714055018060961 6.495541282015119 2 51.150802496207639 3.5304552532936184 2 47.884394057217243 8.4652577123589445 2 54.320319502071577 5.5949359288619505 2 19.293698337531776 3.7980322353585514 2 51.225775130901049 1.4 2 63.186217359518317 10.215637967264009 2 46.82994680460947 1.4 2 56.390765989402993 8.6543114705722957 2 56.427494230925568 1.4 2 45.198557999726226 10.567239542411176 2 52.372894081541617 8.747341954908654 2 56.052543211699643 3.7553623213371856 2 44.751066006695275 5.7381453275587537 2 49.405410135780599 1.4 2 61.508923500797039 7.4016311654578102 2 17.785928713523951 1.4 2 49.559285753327721 5.0246140276834579 2 57.067095109508244 3.4897318575884522 2 58.719021578918827 2.6445859191102095 2 51.780152939804921 6.3002784473592675 2 50.865576131725952 8.5463915324379851 2 53.171703301581417 4.7643901249377878 2 18.982431864062761 5.2171398725260199 2 43.407814959264101 9.7411730264395331 2 55.13393011202384 3.5848567430749361 2 16.345478631318983 5.0147026409028594 2 46.186178111178094 3.3715380847935932 2 60.134187576876478 7.6209107837238568 2 57.000703836123449 1.4 2 46.44486720137958 7.7201244797618367 2 56.606507589217998 12.46506686248892 2 53.398415005471328 2.550117748920969 2 18.675916147029088 7.8307464457557492 2 45.47232324426723 1.4 2 60.226618266970185 11.359654439122727 2 48.451884858960675 4.7326890337737844 2 56.44277359034227 5.8026326509921056 2 61.47539330211535 5.9440670174078782 2 49.661663326926792 2.8234337197976567 2 47.340016898555149 6.7474995785353222 2 52.997096440791559 5.8489707613078705 2 51.884804871717357 1.4 2 56.030141334658531 7.4586871174294167 2 54.852355776544961 1.4 2 49.353932617137012 11.930354989690223 2 54.644838335824552 7.5814767284560887 2 18.471681634253144 2.4278669901003544 2 56.137984860579444 2.7828498529268391 2 59.904976938533181 1.4 2 48.735723302403017 1.4 2 62.477717172993316 6.6982895921945769 2 48.62031035462941 3.5636601844266611 2 59.553845363759407 4.4444009396963615 2 49.818271066436246 6.5492881434449508 2 51.954846235863727 12.049895008660497 2 52.132936263165796 3.9755646270263991 2 17.436607725792946 6.8516194548251761 2 53.083767979544191 1.4 2 46.537955923056032 4.2574288986476425 2 58.432186625922469 6.7704640349732523 2 57.45398232160013 1.4 2 22.331380696313882 11.190602000758544 2 45.952047462263948 8.975119679111728 2 54.409626819569752 11.393543544366064 2 55.336100268720514 1.4092109432726208 2 48.089618393980388 1.4 2 58.586999195342507 10.813702359497988 2 45.187804539362524 4.1929840834627896 2 57.703855962919285 5.477892810651074 2 60.312876027238552 5.4633276491917373 2 50.708993716842635 4.4571560859491575 2 47.572564137925902 10.019249954801932 2 55.28556077895955 6.3223889439344783 2 18.077727648821234 3.5862022721108837 2 50.010111682388455 1.4 2 62.331997761774083 11.757947784051924 2 48.590123262510133 2.4345386186972471 2 55.144371111678332 9.4926419340600727 2 58.030907393163865 1.4 2 46.843491469698094 11.921465750479559 2 52.466286751401789 7.4191518575216993 2 57.01110029711095 4.5859165787907719 2 45.837451137655364 6.4913839963700468 2 50.642694002509529 1.4 2 62.291321545801196 8.7397375318541197 2 18.567298701027553 1.4 2 50.633968990811582 5.6857791835052582 2 57.819079999189164 3.1091368978070362 2 20.230884353394654 5.3357662333155638 2 50.910763272466731 7.2637827592365127 2 49.418314290979843 8.4704078954676216 2 53.675275135164192 3.6324511822255374 2 59.447899333536128 3.4273648552215965 2 17.828782820652261 5.4949933572626755 2 42.759830176334823 11.699641950618423 2 54.458001647012331 4.4533166650361915 2 15.259756345380218 4.6428900054089395 2 47.552147346019055 3.9298915722732382 2 59.646188917594074 8.866026675509028 2 55.85922284552742 1.4 2 44.527358722839082 7.2563324929368074 2 56.577204708729923 10.510453601791024 2 52.508157027217763 1.4 2 19.814521092834589 6.87933257107139 2 46.341277257489885 2.3320526761970153 2 60.955715312395483 9.5721852265831817 2 17.066918776375662 4.1634074158091305 2 48.550909337227154 5.9954918662668648 2 55.578154363234312 5.0064983136250003 2 50.649894205248827 2.6928148426118796 2 47.374882348816982 5.4998963228140569 2 46.13737888758105 1.4 2 53.670456806579587 6.8503125573259585 2 52.613867599750847 3.2945803503782995 2 57.176056242847729 6.880287866525177 2 54.522158563793326 2.9138368692185108 2 49.479282922414868 10.07804304446821 2 53.879605151192969 8.6548526533875556 2 54.287515445435716 1.4 2 59.234639630261078 1.4 2 47.4617473275637 1.4 2 49.764386278086867 3.8155205944027908 2 58.321262579085726 4.0723260589930605 2 48.747201666475817 7.3322167597425807 2 51.203237373053632 10.175656975206056 2 </DataArray>
<DataArray Name="forces" NumberOfComponents="3" format="ascii" type="Float32">-0.00098369218605415254 1.1294311317090153 0.0 0.058032288300988555 1.2641963814476849 0.0 -0.40186417396140128 1.0545214534634999 0.0 0.14729937790619663 1.1330079564673734 0.0 0.33540729391706653 -3.8177519564856914 0.0 0.18912102266653411 0.95581760047989517 0.0 -0.11520895309569773 1.0482083725986282 0.0 -0.025086328418987835 1.1779279545084493 0.0 -0.10946797926433671 -4.1750758711450056 0.0 -0.050853658084692221 1.0280186253566281 0.0 -0.29940344747331804 1.1346268096940577 0.0 0.20086113776028625 1.1572785119164746 0.0 -0.41662035625157062 1.078045662801532 0.0 0.18518811583574407 1.1209762293779786 0.0 0.21748540957970836 1.1615897507201312 0.0 -0.16264195646683177 1.236217293763471 0.0 -0.22694437527500222 1.0962007699624714 0.0 -0.099422208519427707 1.0700327398772937 0.0 0.024527526365831914 1.1060974302416549 0.0 -0.12573834724738736 -4.3398331399931802 0.0 0.07943844715116577 1.0752121231891241 0.0 -0.19817826653473669 -4.0596289720195884 0.0 0.13509957936412581 1.1386388978696311 0.0 0.14297103164523906 -3.6409286224279787 0.0 -0.28860243670701335 1.3049276820420606 0.0 -0.032175544990723615 1.1849240480639329 0.0 0.093081165734025806 0.95829606276850954 0.0 -0.13385418063659094 1.1044806388894719 0.0 -0.16506007169647863 -4.345072577258283 0.0 0.022347272501846843 1.1090401142289656 0.0 0.15662148326020434 -3.0070478120343997 0.0 -0.22578127522112174 1.3026865595408443 0.0 -0.037925473350319372 0.86399059576658632 0.0 -0.044666333003173797 1.490788271990688 0.0 -0.040911466103352945 1.1829991523602117 0.0 -0.034120642137921847 1.2146253571720798 0.0 0.0072820555428365075 1.2491435856242374 0.0 -0.02408814817623639 1.1279527375545231 0.0 -0.28270055776087616 0.79916794103552791 0.0 0.20630234739013642 0.97413618546143943 0.0 -0.08998751397451224 1.0957019154873888 0.0 -0.35513939296623831 1.1838696263517587 0.0 0.07133360140326811 1.2105376043026641 0.0 -0.51307087571084797 -3.6829394590316964 0.0 -0.20274087691249981 1.302862753752513 0.0 0.16676775792941467 1.1442164870108678 0.0 0.22717301989743044 1.2680259354475567 0.0 0.0052112079280226542 0.94589883077643622 0.0 -0.18437247650237298 -3.6099093796282435 0.0 0.096315966998781588 1.2542407829281619 0.0 -0.23213335092875295 1.2376034660066524 0.0 0.17439922997627064 1.2363659320539946 0.0 0.29855355611305134 1.1763908325320929 0.0 -0.082664921958591625 1.2300838869855162 0.0 -0.32256351057426524 1.0330420167291403 0.0 -0.054605814744039242 1.2929092265209443 0.0 -0.15630363912692607 -4.5653907998565311 0.0 0.094386556144686551 1.2033709129828238 0.0 -0.48308343086015793 -3.9606456209600331 0.0 -0.022493092026662248 1.2463109702510355 0.0 0.10548800444992867 1.2156980801629598 0.0 0.028967350025557365 1.2046918145748791 0.0 0.066853592052332378 0.96075487072490806 0.0 0.23256266108285562 -3.7411091772511544 0.0 -0.16565115646365541 -4.4530639553210962 0.0 0.1795946662356136 1.3225289685653672 0.0 -0.1507925795295415 1.1981270066197136 0.0 0.27769887858254694 1.1234406809982647 0.0 -0.18366738881410183 1.1946868735078211 0.0 -0.050499506573071229 1.2865372962113089 0.0 -0.099427702277022689 1.1056350687445453 0.0 -0.0052495380977153061 1.0596474359781289 0.0 -0.10886367755543835 -4.2462989650957592 0.0 -0.19367586368044296 1.1226425442426458 0.0 0.20983869596227789 1.1376352602614614 0.0 0.96085819177626641 -2.2292370632207419 0.0 -0.1144042627274105 0.99336639909231816 0.0 -0.223942962684897 1.3169430862299962 0.0 -0.072472250697287341 1.3494809555074327 0.0 0.25437693738672951 -2.1789667884030544 0.0 -0.16367088375518435 -4.1892064018012638 0.0 -0.04495926542382947 1.2546554114359332 0.0 -0.31697518450162276 1.0076225151003315 0.0 0.17174508387380527 1.1292924962035116 0.0 0.16253686471975259 1.1869530098232781 0.0 -0.13139245512007092 1.3798924918762774 0.0 -0.091698120625175461 1.171515847037742 0.0 -0.011876619165778542 1.1210082915681769 0.0 -0.013884464498838733 1.1120662036832147 0.0 -0.17066562425769852 -4.370535534780025 0.0 0.2598009617810848 1.2146074145538024 0.0 -0.21202559741975957 1.3497232991363726 0.0 0.024687093414855532 1.2577463512826319 0.0 0.49154187575237024 -3.8813277485525468 0.0 -0.046168034409172443 1.1392115202593998 0.0 -0.054760524516923037 1.2285636000768725 0.0 0.14939105736347336 1.1989357490780028 0.0 -0.13143603153450578 1.2522386439256528 0.0 -0.16071231562499019 -4.2601998672935002 0.0 0.065630464567628888 1.1465820792246306 0.0 0.14343149377417463 -3.2350855476339246 0.0 -0.088676870197207269 1.2665372703517166 0.0 -0.071900498783851755 1.0398738679946171 0.0 -0.018602658378615834 1.2138785476037 0.0 -0.11167831279779417 1.1433430423572712 0.0 -0.037739809196385532 1.14425856080587 0.0 0.13714765565744755 1.1157877611933302 0.0 0.10599504870397003 1.0900000315988527 0.0 -0.081851115072568148 0.97598683410131326 0.0 0.040446569839323099 1.048610150233046 0.0 0.14744431314230361 1.0601867443304784 0.0 -0.030192100225534313 1.0956477708176258 0.0 -0.21329183071896501 1.1501179230693772 0.0 0.17398247049148807 1.2832625440985024 0.0 0.33654672753873927 -3.8404847363045769 0.0 -0.24601212867705691 1.0265311417488958 0.0 -0.11441757597179358 1.0406151910401509 0.0 -0.14125690376169386 -4.4627533159900654 0.0 0.016791479768738182 1.0609430993863558 0.0 -0.31617429219187154 1.2093132829922153 0.0 0.10559583296341613 1.262170607258533 0.0 0.013188514581045717 1.1240445163130679 0.0 -0.2727110185875582 1.280803183469942 0.0 0.087596374367808552 1.3837034719540344 0.0 0.0036468834013633211 1.2120451556603034 0.0 -0.27111117562858233 1.0880306893585399 0.0 -0.17473140673233645 -4.0883896810215496 0.0 0.041804986644359582 1.2583661255637308 0.0 0.086530200104543598 1.2434586446137943 0.0 0.18076930641435462 1.208752610041389 0.0 0.32017361347675533 1.0860449700861343 0.0 -0.18837981401687842 1.1410946182879866 0.0 0.072419992917549109 1.2224435209659683 0.0 -0.19113456359141065 -3.9358482720798098 0.0 0.23262064690806353 -3.9329335461809807 0.0 -0.15915744293625633 -4.0109873964350671 0.0 -0.13651305176155126 1.2307163686280869 0.0 0.077024448707645132 1.0730496639950808 0.0 -0.21919807882135656 1.3116770589103059 0.0 -0.077215846619918649 1.2692750438518459 0.0 </DataArray>
<DataArray Name="radii" format="ascii" type="Float32">1.4 1.4 1.4 1.4 1.4 1.4 1.4 1.4 1.4 1.4 1.4 1.4 1.4 1.4 1.4 1.4 1.4 1.4 1.4 1.4 1.4 1.4 1.4 1.4 1.4 1.4 1.4 1.4 1.4 1.4 1.4 1.4 1.4 1.4 1.4 1.4 1.4 1.4 1.4 1.4 1.4 1.4 1.4 1.4 1.4 1.4 1.4 1.4 1.4 1.4 1.4 1.4 1.4 1.4 1.4 1.4 1.4 1.4 1.4 1.4 1.4 1.4 1.4 1.4 1.4 1.4 1.4 1.4 1.4 1.4 1.4 1.4 1.4 1.4 1.4 1.4 1.4 1.4 1.4 1.4 1.4 1.4 1.4 1.4 1.4 1.4 1.4 1.4 1.4 1.4 1.4 1.4 1.4 1.4 1.4 1.4 1.4 1.4 1.4 1.4 1.4 1.4 1.4 1.4 1.4 1.4 1.4 1.4 1.4 1.4 1.4 1.4 1.4 1.4 1.4 1.4 1.4 1.4 1.4 1.4 1.4 1.4 1.4 1.4 1.4 1.4 1.4 1.4 1.4 1.4 1.4 1.4 1.4 1.4 1.4 1.4 1.4 1.4 1.4 1.4 </DataArray>
</PointData>
<CellData/>
</Piece>
</UnstructuredGrid>
</VTKFile>
