<?xml version="1.0" ?>
<VTKFile byte_order="LittleEndian" type="UnstructuredGrid" version="0.1">
<UnstructuredGrid>
<Piece NumberOfCells="0" NumberOfPoints="125">
<Points>
<DataArray NumberOfComponents="3" format="ascii" type="Float32">51.706312457812182 4.3985890193063337 2 52.017324179962841 1.5999999999999999 2 58.261492123173539 7.255923584396565 2 58.803553568614099 1.5999999999999999 2 44.03736086635768 7.5379188683936027 2 53.263003521858238 9.4070267606385976 2 53.904554318570163 1.5999999999999999 2 19.322661073797924 8.7430118317560463 2 47.083427209567539 2.5236823421113579 2 58.156866234239537 8.6401337106202885 2 45.508051039323696 4.5074325329837821 2 59.076713414081098 4.6251899601045769 2 60.038156642320111 5.7511849093322915 2 51.108146634053988 3.2422127883859311 2 47.64826437313603 7.7801426864545977 2 54.429857494354685 5.0862288324026395 2 51.053724465477281 1.5999999999999999 2 63.175503776864559 9.2065148795664538 2 46.57712507717271 1.5999999999999999 2 56.586041649116716 7.9616410396024024 2 56.719364876007468 1.5999999999999999 2 44.961187085813691 9.744675639024786 2 52.237596542609154 8.1661613983287094 2 56.252833445404143 3.5370139682395627 2 49.229919565283673 1.5999999999999999 2 61.59349803477506 6.5699169997633913 2 49.283975362212409 4.4203904103533427 2 57.246898890940798 3.2448586643778863 2 59.248329217980441 1.5999999999999999 2 51.741256018118406 5.7272727104292516 2 50.754436682454489 7.8900072101694674 2 53.185435027093817 4.1809687199923662 2 19.109675688412814 4.378170377312955 2 43.095319926805139 8.7338422189600973 2 55.196880690087355 3.3999936187983995 2 16.430894604760127 4.4483642914750634 2 45.534115460911949 2.8891165804556187 2 60.250125258981434 6.8227474639268424 2 57.249048811250233 1.5999999999999999 2 46.097972290166645 6.9821059805790657 2 56.726817997993564 11.609810690575209 2 53.449162863667432 1.5999999999999999 2 18.688672164300801 6.9024769417698622 2 44.986326604247701 1.5999999999999999 2 60.416782182923676 10.581067547648276 2 48.141583376699401 4.1496458644332579 2 56.516668025576095 5.1570776977768924 2 49.36317927554984 2.5286498243543867 2 47.062411242963101 6.0942911298882931 2 52.986414653321411 5.3021858686121925 2 51.569097823543864 1.5999999999999999 2 56.127087176600575 6.7076175938382212 2 54.970810626692241 1.5999999999999999 2 49.275946146607474 11.227764300570884 2 54.71347697611521 6.9499087128879253 2 18.375675621029835 1.5999999999999999 2 56.342625206151766 1.8759030258644172 2 48.688941809207456 1.5999999999999999 2 48.308884994782773 3.2349436823539555 2 59.908768683252738 3.827952923429998 2 49.689456755898746 5.9311646195506569 2 51.883842680430917 11.313460712057802 2 52.138605464691388 3.7385443062394299 2 52.978983155613875 1.5999999999999999 2 46.178848505665982 3.794189537635249 2 58.696985033976752 5.9856510160758365 2 57.752367532419285 1.5999999999999999 2 45.759240442647013 8.2623102443402079 2 54.342166766024974 10.793383091848103 2 55.474348597055339 1.5999999999999999 2 47.69092738530388 1.5999999999999999 2 58.654590786871907 10.181779185654648 2 44.602023583512519 3.641792412534699 2 57.899934106670415 4.835633191291274 2 60.529621342899482 4.5698708947923716 2 50.546546619781459 4.0051489544396279 2 47.486817467220156 9.2100891822208126 2 55.39689321864418 5.7632968209078843 2 18.140830162488012 2.8891520929262922 2 49.784668887526458 1.5999999999999999 2 62.699040307115979 10.957051130601235 2 48.192463340839936 1.5999999999999999 2 55.200232947499501 8.7034895623308728 2 58.296519145995816 1.5999999999999999 2 46.70572789224962 11.059308054605557 2 52.430101008399404 6.7384868674947427 2 57.300799877711839 4.111203799859414 2 45.579724405877727 5.7516147046521979 2 50.324893571195638 1.5999999999999999 2 62.485003753498169 7.9102023217756878 2 50.537363189096851 5.101898254937641 2 58.238670430522561 2.7133248709343385 2 20.439843782878942 4.6825351265764183 2 50.801174843294575 6.6066457858022005 2 49.317064239896659 7.6546177990397934 2 53.628222175026913 3.3522489976625596 2 17.901071559231834 4.5406907430499501 2 42.689090043208097 10.785386418132804 2 54.413785493980718 4.0750194382729346 2 47.146868989022444 3.7093046148841582 2 59.70901285289068 8.0831232108516016 2 56.005708966718977 1.5999999999999999 2 44.226086805760701 6.3026511861417225 2 56.428167703262396 9.588646970671352 2 52.491087537548317 1.5999999999999999 2 46.057708949118947 1.5999999999999999 2 61.073562526941949 8.6195613332984706 2 48.403508885884939 5.3469566478606732 2 55.684861395037267 4.3162604937550668 2 50.666458491424606 1.8804243766916757 2 46.992730259568091 4.8623098166418739 2 45.532622820876981 1.5999999999999999 2 53.659625708764011 6.2631523060683811 2 52.548838867869478 2.8975537436322982 2 57.342868742982724 6.225563783408683 2 54.615888648035991 2.5092782907913538 2 49.375266109123004 9.325371650011725 2 53.788415389134371 7.9518951600628229 2 54.427330059607314 1.5999999999999999 2 59.74568624919705 1.5999999999999999 2 47.140843034061817 1.5999999999999999 2 49.599292235290868 3.5850221870315808 2 58.652300994504941 3.6761046460067774 2 48.445699806743747 6.5617406783101817 2 51.190626939779612 9.491910432065966 2 </DataArray>
</Points>
<Cells>
<DataArray Name="connectivity" format="ascii" type="Int32">0</DataArray>
<DataArray Name="offsets" format="ascii" type="Int32">0</DataArray>
<DataArray Name="types" format="ascii" type="UInt8">1</DataArray>
</Cells>
<PointData>
<DataArray Name="Points" NumberOfComponents="3" format="ascii" type="Float32">51.706312457812182 4.3985890193063337 2 52.017324179962841 1.5999999999999999 2 58.261492123173539 7.255923584396565 2 58.803553568614099 1.5999999999999999 2 44.03736086635768 7.5379188683936027 2 53.263003521858238 9.4070267606385976 2 53.904554318570163 1.5999999999999999 2 19.322661073797924 8.7430118317560463 2 47.083427209567539 2.5236823421113579 2 58.156866234239537 8.6401337106202885 2 45.508051039323696 4.5074325329837821 2 59.076713414081098 4.6251899601045769 2 60.038156642320111 5.7511849093322915 2 51.108146634053988 3.2422127883859311 2 47.64826437313603 7.7801426864545977 2 54.429857494354685 5.0862288324026395 2 51.053724465477281 1.5999999999999999 2 63.175503776864559 9.2065148795664538 2 46.57712507717271 1.5999999999999999 2 56.586041649116716 7.9616410396024024 2 56.719364876007468 1.5999999999999999 2 44.961187085813691 9.744675639024786 2 52.237596542609154 8.1661613983287094 2 56.252833445404143 3.5370139682395627 2 49.229919565283673 1.5999999999999999 2 61.59349803477506 6.5699169997633913 2 49.283975362212409 4.4203904103533427 2 57.246898890940798 3.2448586643778863 2 59.248329217980441 1.5999999999999999 2 51.741256018118406 5.7272727104292516 2 50.754436682454489 7.8900072101694674 2 53.185435027093817 4.1809687199923662 2 19.109675688412814 4.378170377312955 2 43.095319926805139 8.7338422189600973 2 55.196880690087355 3.3999936187983995 2 16.430894604760127 4.4483642914750634 2 45.534115460911949 2.8891165804556187 2 60.250125258981434 6.8227474639268424 2 57.249048811250233 1.5999999999999999 2 46.097972290166645 6.9821059805790657 2 56.726817997993564 11.609810690575209 2 53.449162863667432 1.5999999999999999 2 18.688672164300801 6.9024769417698622 2 44.986326604247701 1.5999999999999999 2 60.416782182923676 10.581067547648276 2 48.141583376699401 4.1496458644332579 2 56.516668025576095 5.1570776977768924 2 49.36317927554984 2.5286498243543867 2 47.062411242963101 6.0942911298882931 2 52.986414653321411 5.3021858686121925 2 51.569097823543864 1.5999999999999999 2 56.127087176600575 6.7076175938382212 2 54.970810626692241 1.5999999999999999 2 49.275946146607474 11.227764300570884 2 54.71347697611521 6.9499087128879253 2 18.375675621029835 1.5999999999999999 2 56.342625206151766 1.8759030258644172 2 48.688941809207456 1.5999999999999999 2 48.308884994782773 3.2349436823539555 2 59.908768683252738 3.827952923429998 2 49.689456755898746 5.9311646195506569 2 51.883842680430917 11.313460712057802 2 52.138605464691388 3.7385443062394299 2 52.978983155613875 1.5999999999999999 2 46.178848505665982 3.794189537635249 2 58.696985033976752 5.9856510160758365 2 57.752367532419285 1.5999999999999999 2 45.759240442647013 8.2623102443402079 2 54.342166766024974 10.793383091848103 2 55.474348597055339 1.5999999999999999 2 47.69092738530388 1.5999999999999999 2 58.654590786871907 10.181779185654648 2 44.602023583512519 3.641792412534699 2 57.899934106670415 4.835633191291274 2 60.529621342899482 4.5698708947923716 2 50.546546619781459 4.0051489544396279 2 47.486817467220156 9.2100891822208126 2 55.39689321864418 5.7632968209078843 2 18.140830162488012 2.8891520929262922 2 49.784668887526458 1.5999999999999999 2 62.699040307115979 10.957051130601235 2 48.192463340839936 1.5999999999999999 2 55.200232947499501 8.7034895623308728 2 58.296519145995816 1.5999999999999999 2 46.70572789224962 11.059308054605557 2 52.430101008399404 6.7384868674947427 2 57.300799877711839 4.111203799859414 2 45.579724405877727 5.7516147046521979 2 50.324893571195638 1.5999999999999999 2 62.485003753498169 7.9102023217756878 2 50.537363189096851 5.101898254937641 2 58.238670430522561 2.7133248709343385 2 20.439843782878942 4.6825351265764183 2 50.801174843294575 6.6066457858022005 2 49.317064239896659 7.6546177990397934 2 53.628222175026913 3.3522489976625596 2 17.901071559231834 4.5406907430499501 2 42.689090043208097 10.785386418132804 2 54.413785493980718 4.0750194382729346 2 47.146868989022444 3.7093046148841582 2 59.70901285289068 8.0831232108516016 2 56.005708966718977 1.5999999999999999 2 44.226086805760701 6.3026511861417225 2 56.428167703262396 9.588646970671352 2 52.491087537548317 1.5999999999999999 2 46.057708949118947 1.5999999999999999 2 61.073562526941949 8.6195613332984706 2 48.403508885884939 5.3469566478606732 2 55.684861395037267 4.3162604937550668 2 50.666458491424606 1.8804243766916757 2 46.992730259568091 4.8623098166418739 2 45.532622820876981 1.5999999999999999 2 53.659625708764011 6.2631523060683811 2 52.548838867869478 2.8975537436322982 2 57.342868742982724 6.225563783408683 2 54.615888648035991 2.5092782907913538 2 49.375266109123004 9.325371650011725 2 53.788415389134371 7.9518951600628229 2 54.427330059607314 1.5999999999999999 2 59.74568624919705 1.5999999999999999 2 47.140843034061817 1.5999999999999999 2 49.599292235290868 3.5850221870315808 2 58.652300994504941 3.6761046460067774 2 48.445699806743747 6.5617406783101817 2 51.190626939779612 9.491910432065966 2 </DataArray>
<DataArray Name="forces" NumberOfComponents="3" format="ascii" type="Float32">-0.32219145567924568 2.7936525978100195 0.0 0.0014044794748304459 -6.2223546020826142 0.0 0.17524377545247627 2.1316632392705066 0.0 -0.10472692758832591 -5.793959127764861 0.0 -0.10849635712759299 2.1340957263745515 0.0 0.26317258747477479 2.1421768910671952 0.0 0.1859740950970088 -6.3873305335635528 0.0 -0.32996702236570508 1.8884997305805962 0.0 -0.48560867056875279 2.8555357403586448 0.0 0.23387660013003 2.325314818664816 0.0 -0.71376586352050919 2.5742638587972486 0.0 0.33460786561265243 2.3759249887395231 0.0 0.24989731257993375 2.3691442883016127 0.0 -0.25410645501595552 2.9184208773986331 0.0 -0.31984973864136612 2.2550293803823562 0.0 0.12759198573109964 2.644587104200153 0.0 0.18126512078767387 -7.0852542425657763 0.0 -0.21919740486036465 1.9295569928679455 0.0 -0.3873443613738039 -6.2691750176363952 0.0 0.34130275235448593 2.1699117134369823 0.0 0.75647596332861666 -7.257930442351455 0.0 -0.32319779059711151 2.0100412110275765 0.0 -0.19335994853014726 2.3717765762159537 0.0 0.26277708373472475 2.9307927592689684 0.0 -0.44421416334297148 -7.0479158345633346 0.0 -0.062644402507683827 2.1806713763455474 0.0 -0.33081029447402688 2.8374087616166741 0.0 0.027746133150781782 2.9470690957874091 0.0 0.44664932878957908 -5.3959809415982019 0.0 -0.027747206587302189 2.5832619092246452 0.0 -0.22440427430794491 2.3140968283075893 0.0 0.03493330128687383 3.05025350999352 0.0 0.18754714346265158 2.6020865832397333 0.0 -0.24594459443478217 1.9834522400506434 0.0 0.23403524081168503 3.1632476488489907 0.0 0.44605006242852574 2.7670948810957818 0.0 -0.6937812510088931 2.9541871617699926 0.0 0.055578699866052295 2.3244797750157855 0.0 0.38814713984021126 -6.3316269760406385 0.0 -0.50304757425615132 2.1648693095954883 0.0 0.16945155739308446 1.8422971581030878 0.0 0.03493659692762785 -6.2584191596189225 0.0 0.026630358545005617 1.9193262753378693 0.0 -0.2805027514055658 -4.6370858430543906 0.0 0.3536769787468439 2.0088630636962406 0.0 -0.34128074719963442 3.0190943134174537 0.0 0.081545175490187194 2.3001913120465844 0.0 -0.10643952882927737 3.0957414557935903 0.0 -0.39996857487965931 2.5386409935352807 0.0 -0.014851581493459678 2.5323191009724453 0.0 -0.022047670680877707 -6.3640888789166912 0.0 0.18593073399786758 2.2367083000440164 0.0 0.16329758737583022 -6.8570122938881317 0.0 -0.15635039481092528 2.1049132239848434 0.0 0.13078666060837296 2.4505484309604517 0.0 -0.031613056182732135 -3.287771491227689 0.0 0.24866514807024079 0.039407715352998501 0.0 -0.44835242863266372 -6.5547832429090382 0.0 -0.36361431578383652 3.0110247887936108 0.0 0.45562074077332881 2.6645369261191454 0.0 -0.23756201107720298 2.6187311082933871 0.0 -0.13665907787699783 2.0470681534541479 0.0 -0.0080946562004444722 3.0720815774565287 0.0 -0.034037719096751129 -6.252606130920042 0.0 -0.46929931979940925 3.0982571047610459 0.0 0.28497385380991169 2.2619469249333677 0.0 0.21376300658492564 -6.147986626334454 0.0 -0.29334492861800282 2.2111364573202965 0.0 -0.068690109166462565 2.3398771969881826 0.0 0.0089250231860913409 -6.6586259079069778 0.0 -0.3596883027379017 -6.4452334851207409 0.0 0.1298331071955709 2.2482187140794321 0.0 -0.61114107985969901 2.8316907449855186 0.0 0.30828509663839565 2.4885816846440898 0.0 0.15992303964804494 2.4135677788367729 0.0 -0.1826390589686393 2.9476499354315697 0.0 -0.11818784637075627 2.0692614810986387 0.0 0.12234447345069255 2.5730879965253561 0.0 0.086143663547123661 2.5299555222475494 0.0 -0.48764638162550633 -6.8307906293089653 0.0 0.44741438520213628 1.9816674400185985 0.0 -0.39447626861015944 -6.2799934661296817 0.0 0.079260468755793179 2.061240489913668 0.0 0.15504564074249993 -6.1989031617059123 0.0 -0.21085380490432232 1.9090500798999583 0.0 -0.057924087468442909 2.3904083167408134 0.0 0.27834990613977206 2.9713745045466298 0.0 -0.32760776932828378 2.4287634935456532 0.0 -0.9053085083917779 -7.481336744085203 0.0 0.10989939555877309 2.0434322014318709 0.0 -0.10082720959278979 2.3975696895193144 0.0 0.67015398733477283 3.0542301344526845 0.0 0.032700171595977046 2.5732747953055486 0.0 -0.1177783087262172 2.3220068992360998 0.0 -0.19671581981706088 2.0471488322786917 0.0 -0.022777167798367914 2.9283021915419081 0.0 0.23988569768208778 2.3472842829122205 0.0 0.046326292291593837 1.9378567031162661 0.0 -0.047011178578759145 3.004659934310129 0.0 -0.52231047223123905 3.2383732494754769 0.0 0.13098609949873602 2.1906726542028827 0.0 -0.33209319759246259 -7.4651774642258122 0.0 -0.25675687983467288 2.1232301979393324 0.0 -0.19361497187964793 1.9333083344188471 0.0 -0.007123184506501401 -6.1187431695807337 0.0 -0.34558461364468451 -5.8228804232952234 0.0 0.065271026405537391 2.0962084508167593 0.0 -0.3206656541495092 2.5104764251063356 0.0 0.2003991086008349 2.7370018831685248 0.0 0.01721276465343291 0.029047798986233664 0.0 -0.50493315838830777 2.4379582857326989 0.0 -0.32995283997740854 -5.4392059799741954 0.0 0.017209776025106024 2.5456310462551879 0.0 -0.18259923066784656 2.8037575763682749 0.0 0.23670694911327489 2.5239912705782013 0.0 0.031172920884645183 3.1270310329153825 0.0 -0.18397945933602 2.0627009222716555 0.0 -0.14152080975742926 2.2408561914760075 0.0 0.1715163925522557 -6.8645905154365625 0.0 0.38979347196538627 -5.0535140583536338 0.0 -0.39431517726636017 -6.5451487895363964 0.0 -0.028635479519106426 3.1134754818098727 0.0 0.39751740519625145 2.881776869798824 0.0 -0.41553821440209499 2.2275194663264015 0.0 -0.052091318583324109 2.2015454174228761 0.0 </DataArray>
<DataArray Name="radii" format="ascii" type="Float32">1.5999999999999999 1.5999999999999999 1.5999999999999999 1.5999999999999999 1.5999999999999999 1.5999999999999999 1.5999999999999999 1.5999999999999999 1.5999999999999999 1.5999999999999999 1.5999999999999999 1.5999999999999999 1.5999999999999999 1.5999999999999999 1.5999999999999999 1.5999999999999999 1.5999999999999999 1.5999999999999999 1.5999999999999999 1.5999999999999999 1.5999999999999999 1.5999999999999999 1.5999999999999999 1.5999999999999999 1.5999999999999999 1.5999999999999999 1.5999999999999999 1.5999999999999999 1.5999999999999999 1.5999999999999999 1.5999999999999999 1.5999999999999999 1.5999999999999999 1.5999999999999999 1.5999999999999999 1.5999999999999999 1.5999999999999999 1.5999999999999999 1.5999999999999999 1.5999999999999999 1.5999999999999999 1.5999999999999999 1.5999999999999999 1.5999999999999999 1.5999999999999999 1.5999999999999999 1.5999999999999999 1.5999999999999999 1.5999999999999999 1.5999999999999999 1.5999999999999999 1.5999999999999999 1.5999999999999999 1.5999999999999999 1.5999999999999999 1.5999999999999999 1.5999999999999999 1.5999999999999999 1.5999999999999999 1.5999999999999999 1.5999999999999999 1.5999999999999999 1.5999999999999999 1.5999999999999999 1.5999999999999999 1.5999999999999999 1.5999999999999999 1.5999999999999999 1.5999999999999999 1.5999999999999999 1.5999999999999999 1.5999999999999999 1.5999999999999999 1.5999999999999999 1.5999999999999999 1.5999999999999999 1.5999999999999999 1.5999999999999999 1.5999999999999999 1.5999999999999999 1.5999999999999999 1.5999999999999999 1.5999999999999999 1.5999999999999999 1.5999999999999999 1.5999999999999999 1.5999999999999999 1.5999999999999999 1.5999999999999999 1.5999999999999999 1.5999999999999999 1.5999999999999999 1.5999999999999999 1.5999999999999999 1.5999999999999999 1.5999999999999999 1.5999999999999999 1.5999999999999999 1.5999999999999999 1.5999999999999999 1.5999999999999999 1.5999999999999999 1.5999999999999999 1.5999999999999999 1.5999999999999999 1.5999999999999999 1.5999999999999999 1.5999999999999999 1.5999999999999999 1.5999999999999999 1.5999999999999999 1.5999999999999999 1.5999999999999999 1.5999999999999999 1.5999999999999999 1.5999999999999999 1.5999999999999999 1.5999999999999999 1.5999999999999999 1.5999999999999999 1.5999999999999999 1.5999999999999999 1.5999999999999999 1.5999999999999999 1.5999999999999999 </DataArray>
</PointData>
<CellData/>
</Piece>
</UnstructuredGrid>
</VTKFile>
