<?xml version="1.0" ?>
<VTKFile byte_order="LittleEndian" type="UnstructuredGrid" version="0.1">
<UnstructuredGrid>
<Piece NumberOfCells="0" NumberOfPoints="41">
<Points>
<DataArray NumberOfComponents="3" format="ascii" type="Float32">7.8858698952415152 1.2 2 32.839739397882454 1.2 2 76.719047471942048 1.2 2 78.993813853613062 1.2 2 87.193520432353253 3.2360361863368361 2 1.2 1.2 2 35.131283719504957 1.2 2 69.927718737439221 1.2 2 83.60916765394667 1.2 2 86.039186776969217 5.2813998750476117 2 8.6032974685053318 5.5720390052904207 2 32.082786424804816 5.0014512432421876 2 75.491098115496257 4.2888875629527945 2 77.44450797784539 5.6732427590013099 2 89.582537019198142 3.3026147632045224 2 5.7440279633365297 3.9289416057239799 2 33.802622329465628 3.3456965403303744 2 72.199216831374045 1.2 2 82.415474654232298 3.2680704623491543 2 85.949333523030532 1.2 2 5.6736618520386886 1.5544396335982267 2 31.235814301772848 2.8010785501710362 2 74.483692807634483 1.2 2 80.042328997213872 3.3066347953169544 2 90.020412753112751 5.6326488041779301 2 3.4490942192603664 1.2 2 36.176490395553138 3.2818090627438261 2 70.989976876368672 3.3070806687006655 2 84.787536791735945 3.2517696180363331 2 83.832123432514379 6.1718098454964396 2 8.9800596221765421 3.2513994037628287 2 29.722238529524688 4.5938166943030128 2 72.262456503981028 5.3381203779601325 2 77.67028700783537 3.315383167829169 2 90.583364100890478 1.2 2 92.862950517916602 1.2 2 3.3638457442100242 3.5494870641514913 2 35.659300493189747 5.5993933981195472 2 73.367034899055554 3.2504665054652504 2 81.284535441902577 1.2 2 88.284244049141819 1.2 2 </DataArray>
</Points>
<Cells>
<DataArray Name="connectivity" format="ascii" type="Int32">0</DataArray>
<DataArray Name="offsets" format="ascii" type="Int32">0</DataArray>
<DataArray Name="types" format="ascii" type="UInt8">1</DataArray>
</Cells>
<PointData>
<DataArray Name="Points" NumberOfComponents="3" format="ascii" type="Float32">7.8858698952415152 1.2 2 32.839739397882454 1.2 2 76.719047471942048 1.2 2 78.993813853613062 1.2 2 87.193520432353253 3.2360361863368361 2 1.2 1.2 2 35.131283719504957 1.2 2 69.927718737439221 1.2 2 83.60916765394667 1.2 2 86.039186776969217 5.2813998750476117 2 8.6032974685053318 5.5720390052904207 2 32.082786424804816 5.0014512432421876 2 75.491098115496257 4.2888875629527945 2 77.44450797784539 5.6732427590013099 2 89.582537019198142 3.3026147632045224 2 5.7440279633365297 3.9289416057239799 2 33.802622329465628 3.3456965403303744 2 72.199216831374045 1.2 2 82.415474654232298 3.2680704623491543 2 85.949333523030532 1.2 2 5.6736618520386886 1.5544396335982267 2 31.235814301772848 2.8010785501710362 2 74.483692807634483 1.2 2 80.042328997213872 3.3066347953169544 2 90.020412753112751 5.6326488041779301 2 3.4490942192603664 1.2 2 36.176490395553138 3.2818090627438261 2 70.989976876368672 3.3070806687006655 2 84.787536791735945 3.2517696180363331 2 83.832123432514379 6.1718098454964396 2 8.9800596221765421 3.2513994037628287 2 29.722238529524688 4.5938166943030128 2 72.262456503981028 5.3381203779601325 2 77.67028700783537 3.315383167829169 2 90.583364100890478 1.2 2 92.862950517916602 1.2 2 3.3638457442100242 3.5494870641514913 2 35.659300493189747 5.5993933981195472 2 73.367034899055554 3.2504665054652504 2 81.284535441902577 1.2 2 88.284244049141819 1.2 2 </DataArray>
<DataArray Name="forces" NumberOfComponents="3" format="ascii" type="Float32">-0.037916219125371207 -0.10125218000676994 0.0 -0.035800157083477654 -0.13563586675378134 0.0 -0.014507388748618483 -0.073973658100679948 0.0 0.014938847934561295 -0.036861663485251349 0.0 -0.024537259773798049 0.031261786398725844 0.0 -0.1470824976376055 0.0 0.0 -0.031234906958665994 -0.049947145787701069 0.0 -0.016392069654502347 -0.038364217027776128 0.0 0.01673273738672032 -0.032482595009090127 0.0 0.0018272797994142234 0.055263496017818721 0.0 -0.0053887281825247746 0.033870773979866944 0.0 0.01112805501828933 0.05159208612313583 0.0 0.012434363132053605 0.017135088696503535 0.0 0.002642074876261303 0.035068015593206006 0.0 -0.024356225936465855 0.031385735684436894 0.0 0.00087736172009982504 0.025570868943712664 0.0 0.0024843692518174178 0.033093725684756499 0.0 -0.033201307358992758 -0.039847674482115472 0.0 0.017840906660995789 0.045683942563527334 0.0 0.0053727314854134789 -0.031376201733659091 0.0 0.028015069218280814 0.021927077913085537 0.0 -0.019127265118664229 0.06258571168528769 0.0 0.0083298245670580147 -0.057559698127381542 0.0 0.01576263524653735 0.037253452899790734 0.0 0.0055835585570684571 0.03056697115969835 0.0 -0.0093858130189670656 -0.072030847824246513 0.0 0.0078178707440102295 0.025952774537402887 0.0 -0.0024085316453498866 0.023663039141105263 0.0 0.011983159092625612 0.039897326829695684 0.0 -0.019125787458389866 0.0079137878269600007 0.0 0.007036526670538213 0.072364320296984766 0.0 -0.00082396200621540766 0.080186971823515016 0.0 -0.014011920374090849 0.03604454258326259 0.0 0.023466500992528883 0.037111099188524392 0.0 0.0034537838943706767 -0.061670685008872662 0.0 0.0098998294885909444 -0.036320802080805292 0.0 -0.0017181018436006393 0.045738022771211223 0.0 -0.0057396437592194252 0.025997370723252564 0.0 0.00018955552828370942 0.049711267503638003 0.0 0.0019941717421817842 -0.03801617643017751 0.0 0.011521924197231831 -0.078911140163066787 0.0 </DataArray>
<DataArray Name="radii" format="ascii" type="Float32">1.2 1.2 1.2 1.2 1.2 1.2 1.2 1.2 1.2 1.2 1.2 1.2 1.2 1.2 1.2 1.2 1.2 1.2 1.2 1.2 1.2 1.2 1.2 1.2 1.2 1.2 1.2 1.2 1.2 1.2 1.2 1.2 1.2 1.2 1.2 1.2 1.2 1.2 1.2 1.2 1.2 </DataArray>
</PointData>
<CellData/>
</Piece>
</UnstructuredGrid>
</VTKFile>
