<?xml version="1.0" ?>
<VTKFile byte_order="LittleEndian" type="UnstructuredGrid" version="0.1">
<UnstructuredGrid>
<Piece NumberOfCells="0" NumberOfPoints="113">
<Points>
<DataArray NumberOfComponents="3" format="ascii" type="Float32">0 0 0 10.883543254132928 1.2 2 24.154489348854394 1 2 25.053417484663274 8.8947541218734241 2 37.905733837984613 7.5612411735450653 2 43.441799784664518 1 2 61.294551559539784 4.0686466600064666 2 66.94875330796566 3.5650466766213307 2 95.026807170018685 6.8560924974850117 2 10.58777859560074 6.0379926626041529 2 28.806803430829511 1.2 2 42.496729375487796 2.2600404338728866 2 68.438597649480101 9.8789209300420033 2 98.6 6.7978830894574536 2 12.492834842766797 2.5553170869671549 2 15.488375621206766 3.7064330560567154 2 24.18660801748803 4.2080751317784886 2 38.455005984891031 1 2 66.87625527278496 1.4 2 98.365930843790508 8.8200054291254286 2 23.116258312692928 9.9340469965594895 2 28.890594932050185 5.0554584767996529 2 39.33815036680268 1.4 2 64.417593105486716 2.0891373689923878 2 65.312918878869098 1 2 96.801227631389935 1.2 2 21.26906828752459 1.9478514763340138 2 27.006565311006607 3.212690414737303 2 40.448651818390054 2.8465293613542273 2 61.598792471130004 1 2 12.758069782880636 3.8365720529179077 2 38.397836727710747 5.5197115298846819 2 65.282165050387931 7.1566770114969964 2 99.0 4.4048903826725407 2 10.118293414981558 4.6335684737697038 2 16.200722908391892 2.6136565516455295 2 25.171813465961282 3.4723806217659261 2 15.664526493338739 1.4 2 27.944472615802383 3.4293653858442603 2 39.190410675031877 6.6073019306829988 2 65.670814296677193 5.2424785888396741 2 67.308860598398468 5.4682811521831685 2 99.0 3.104007402414183 2 23.189150297116157 1.2 2 44.231828581891129 1 2 64.113068261172288 4.4200796081780291 2 42.337696214383499 6.4831815633501142 2 98.575770069735569 5.3442245993870836 2 11.782300924826293 1 2 14.585474182832179 3.0790918341881226 2 24.592244621650241 5.6146944858769636 2 13.086271168774704 7.5130539749849365 2 24.537635632483976 6.9381819413922878 2 61.52970327845054 2.1347760916617329 2 65.551934836137335 3.4433219094348186 2 39.594439331364839 3.2525030946518099 2 12.062428623477235 5.9247154200479226 2 17.030879427106385 8.4506068258136615 2 40.178789565404024 1 2 66.701521900745576 9.2968883746136068 2 99.0 1 2 25.820177654252365 1 2 14.57631938139712 1 2 27.726828414649617 1 2 40.546605045640256 5.7556690385443412 2 64.456615816091997 3.4392062872115612 2 68.237581662288946 8.447428338476314 2 24.215307729096121 2.5018520478132666 2 41.876092597208526 1 2 41.883030202524644 3.9339908896495128 2 63.707802486130376 6.0878332162342392 2 14.875148742621379 8.1926072825925296 2 22.952603971831262 7.182559502044235 2 63.756310393292658 1.2 2 20.474510441637932 1 2 41.013133874709055 1.4 2 62.299733489918026 1 2 13.365352611169561 4.769607013085678 2 67.197857907737244 7.1535872297918255 2 16.479413344563 1 2 23.054639361186283 2.3215290819628587 2 39.125829947614214 8.6815194994129161 2 65.978537458214475 4.2239948529781293 2 22.272173590330031 1 2 62.853535922359242 4.2216775521597985 2 42.925610899160759 4.2561313918174966 2 41.268011577231455 7.5514219088925367 2 13.607362184588386 2.9156003440240874 2 63.019614896665061 1 2 14.773518635318617 11.060830072474012 2 67.113418040499141 11.301880819368904 2 98.482790977267925 1 2 13.59052773908782 1 2 20.77926037642295 8.4497879561944362 2 40.809110074461437 4.2203933620173055 2 63.545311988625357 3.1061785155087147 2 44.398051979890674 2.0219559773319289 2 62.164324371826631 3.7057593934231936 2 21.327533959331944 2.7631275723250179 2 43.047342591893035 2.7295626356408142 2 65.049845668252445 8.6031231180519523 2 40.676506384488 8.8641070738436163 2 61.013267188408648 2.9147977883254357 2 17.693222424052003 10.198470318106699 2 64.667694460087148 6.5294562436465853 2 19.9646977066067 2.13711278130133 2 63.098915082743524 2.2723909115919327 2 63.077067220122494 5.1192165911084739 2 43.060832935157507 5.5755103419690411 2 64.033253254370692 9.5859088444773253 2 62.412182807238224 5.9483942220133512 2 19.650000006403694 1 2 21.399336413848893 7.0922693078245329 2 </DataArray>
</Points>
<Cells>
<DataArray Name="connectivity" format="ascii" type="Int32">0</DataArray>
<DataArray Name="offsets" format="ascii" type="Int32">0</DataArray>
<DataArray Name="types" format="ascii" type="UInt8">1</DataArray>
</Cells>
<PointData>
<DataArray Name="Points" NumberOfComponents="3" format="ascii" type="Float32">0 0 0 10.883543254132928 1.2 2 24.154489348854394 1 2 25.053417484663274 8.8947541218734241 2 37.905733837984613 7.5612411735450653 2 43.441799784664518 1 2 61.294551559539784 4.0686466600064666 2 66.94875330796566 3.5650466766213307 2 95.026807170018685 6.8560924974850117 2 10.58777859560074 6.0379926626041529 2 28.806803430829511 1.2 2 42.496729375487796 2.2600404338728866 2 68.438597649480101 9.8789209300420033 2 98.6 6.7978830894574536 2 12.492834842766797 2.5553170869671549 2 15.488375621206766 3.7064330560567154 2 24.18660801748803 4.2080751317784886 2 38.455005984891031 1 2 66.87625527278496 1.4 2 98.365930843790508 8.8200054291254286 2 23.116258312692928 9.9340469965594895 2 28.890594932050185 5.0554584767996529 2 39.33815036680268 1.4 2 64.417593105486716 2.0891373689923878 2 65.312918878869098 1 2 96.801227631389935 1.2 2 21.26906828752459 1.9478514763340138 2 27.006565311006607 3.212690414737303 2 40.448651818390054 2.8465293613542273 2 61.598792471130004 1 2 12.758069782880636 3.8365720529179077 2 38.397836727710747 5.5197115298846819 2 65.282165050387931 7.1566770114969964 2 99.0 4.4048903826725407 2 10.118293414981558 4.6335684737697038 2 16.200722908391892 2.6136565516455295 2 25.171813465961282 3.4723806217659261 2 15.664526493338739 1.4 2 27.944472615802383 3.4293653858442603 2 39.190410675031877 6.6073019306829988 2 65.670814296677193 5.2424785888396741 2 67.308860598398468 5.4682811521831685 2 99.0 3.104007402414183 2 23.189150297116157 1.2 2 44.231828581891129 1 2 64.113068261172288 4.4200796081780291 2 42.337696214383499 6.4831815633501142 2 98.575770069735569 5.3442245993870836 2 11.782300924826293 1 2 14.585474182832179 3.0790918341881226 2 24.592244621650241 5.6146944858769636 2 13.086271168774704 7.5130539749849365 2 24.537635632483976 6.9381819413922878 2 61.52970327845054 2.1347760916617329 2 65.551934836137335 3.4433219094348186 2 39.594439331364839 3.2525030946518099 2 12.062428623477235 5.9247154200479226 2 17.030879427106385 8.4506068258136615 2 40.178789565404024 1 2 66.701521900745576 9.2968883746136068 2 99.0 1 2 25.820177654252365 1 2 14.57631938139712 1 2 27.726828414649617 1 2 40.546605045640256 5.7556690385443412 2 64.456615816091997 3.4392062872115612 2 68.237581662288946 8.447428338476314 2 24.215307729096121 2.5018520478132666 2 41.876092597208526 1 2 41.883030202524644 3.9339908896495128 2 63.707802486130376 6.0878332162342392 2 14.875148742621379 8.1926072825925296 2 22.952603971831262 7.182559502044235 2 63.756310393292658 1.2 2 20.474510441637932 1 2 41.013133874709055 1.4 2 62.299733489918026 1 2 13.365352611169561 4.769607013085678 2 67.197857907737244 7.1535872297918255 2 16.479413344563 1 2 23.054639361186283 2.3215290819628587 2 39.125829947614214 8.6815194994129161 2 65.978537458214475 4.2239948529781293 2 22.272173590330031 1 2 62.853535922359242 4.2216775521597985 2 42.925610899160759 4.2561313918174966 2 41.268011577231455 7.5514219088925367 2 13.607362184588386 2.9156003440240874 2 63.019614896665061 1 2 14.773518635318617 11.060830072474012 2 67.113418040499141 11.301880819368904 2 98.482790977267925 1 2 13.59052773908782 1 2 20.77926037642295 8.4497879561944362 2 40.809110074461437 4.2203933620173055 2 63.545311988625357 3.1061785155087147 2 44.398051979890674 2.0219559773319289 2 62.164324371826631 3.7057593934231936 2 21.327533959331944 2.7631275723250179 2 43.047342591893035 2.7295626356408142 2 65.049845668252445 8.6031231180519523 2 40.676506384488 8.8641070738436163 2 61.013267188408648 2.9147977883254357 2 17.693222424052003 10.198470318106699 2 64.667694460087148 6.5294562436465853 2 19.9646977066067 2.13711278130133 2 63.098915082743524 2.2723909115919327 2 63.077067220122494 5.1192165911084739 2 43.060832935157507 5.5755103419690411 2 64.033253254370692 9.5859088444773253 2 62.412182807238224 5.9483942220133512 2 19.650000006403694 1 2 21.399336413848893 7.0922693078245329 2 </DataArray>
<DataArray Name="forces" NumberOfComponents="3" format="ascii" type="Float32">0 0 0 0.01618159211066561 -1.6598701745642379 0.0 0.0030808797856565762 -1.4659491690527908 0.0 -0.018383929461374227 0.73816192523014379 0.0 -0.095015692906055715 0.83325730020610544 0.0 -0.037134496088771396 -1.1879241892717218 0.0 -0.021369732978559958 0.34013992050143593 0.0 0.035121266551833563 0.47116367782914192 0.0 -0.050891773983953656 0.41451058446327127 0.0 -0.06532739718680354 0.29525024132817618 0.0 -0.079858977267437958 -1.8264958966800819 0.0 0.068906068736054343 0.1229999773980307 0.0 0.035994108502379107 0.30403480862936255 0.0 0.71731076310251485 0.77563195135939744 0.0 0.06644035299544071 0.26737787250771339 0.0 0.14193327093763491 0.30677216880338354 0.0 -0.035101688460626945 0.67133747541897781 0.0 -0.087064492973133151 -1.6965106147618458 0.0 0.0030988346120934818 -1.2734649041695156 0.0 0.027648102234166527 0.31202183666357236 0.0 0.093901658193781434 0.32526214998948327 0.0 -0.11324462663959639 0.38395065956906127 0.0 -0.051677957088183513 -1.3418600276921746 0.0 0.00080098427125491201 0.27630937829479135 0.0 0.013797239333275924 -1.6602731567747224 0.0 -0.058656865975937666 -1.128747462169357 0.0 -0.061728316357122767 0.33754462295606996 0.0 0.041111317405810713 0.39437367312736726 0.0 0.021373195462868644 0.46685190577773061 0.0 -0.027608552911142434 -1.1937596551199783 0.0 0.023459475866561552 0.23204818231519436 0.0 0.0029019646014972755 0.4576740992906384 0.0 0.0092559967827667844 0.29665843664517733 0.0 1.0913458846851243 0.18214214995203004 0.0 -0.0050256444674923184 0.47756090820302077 0.0 0.16457752181575591 0.18072058060163804 0.0 0.036523807759876764 0.5994311870017589 0.0 -0.058232884412641878 -1.3609812571246929 0.0 -0.013084262870789454 0.40753080222539073 0.0 -0.089627969482348288 0.22952261363408247 0.0 0.042697662806385477 0.24455754110691449 0.0 0.13167939152484814 0.57072307483506979 0.0 1.1831472988245664 0.30578607229187393 0.0 -0.045034458237832142 -1.3333505859116108 0.0 -0.075091637443520654 -1.2522930010831712 0.0 0.057095425453343673 0.30007653828060021 0.0 0.013817560122701633 0.23476500717627038 0.0 0.24869981018048198 0.31329306165215209 0.0 -0.009827808619667866 -1.5281730328665726 0.0 0.059148676000043976 0.56185125199411534 0.0 -0.055069890819923334 0.23784634165253427 0.0 -0.035461814251515622 0.59762926648194603 0.0 -0.07090049289295193 0.54202192902954061 0.0 -0.020893156198210527 0.20765593507587055 0.0 0.00057073291460885134 0.34338157027516136 0.0 0.014622691471589566 0.27880492169830062 0.0 -0.0043216489809823067 0.49563442982221928 0.0 -0.024962042981672455 0.25612943724975779 0.0 -0.049413397667744538 -1.6848205761820227 0.0 -0.023495289311026957 0.36893995502448551 0.0 2.1341089419212689 -0.90803358501319553 0.0 0.099843136307768088 -1.5466698920258872 0.0 0.015857627640671945 -1.7878621431573694 0.0 0.080157680062151071 -1.6742877391632338 0.0 -0.0079397080858681912 0.35628987942647705 0.0 -0.058795349473665701 0.428654882246366 0.0 0.04029561301909497 0.34955301528223992 0.0 0.051726548000993855 0.25691695642119544 0.0 -0.087658842494752864 -1.5406735676369125 0.0 0.0041466078387397062 0.72827245514725525 0.0 -0.088897083862197634 0.2737050507258858 0.0 0.017605619141295631 0.73929787509136125 0.0 -0.031214213073674224 0.23880580086937303 0.0 -0.0070239150016271901 -1.4042836283811293 0.0 0.012596486111676741 -1.3092693564390787 0.0 -0.066070406359973743 -1.2537308785456964 0.0 -0.016545109073440648 -1.4463319646134829 0.0 -0.045889207710961666 0.84265294589703132 0.0 0.040436603740104937 0.52586243072769712 0.0 -0.058468316749636554 -1.6723784795258549 0.0 0.032994879145378991 0.71516288703430064 0.0 0.080389882977375302 0.53363519471178611 0.0 0.037204981375176666 0.31301238235562057 0.0 -0.044546805081241425 -1.441438823585381 0.0 0.0024225190366196081 0.2458415154339802 0.0 -0.032403087543917602 0.23085595024492969 0.0 0.047513142965423083 0.22469812481573009 0.0 0.051630755714758197 0.24314171640994831 0.0 -0.0038885247875503626 -1.5451242050839027 0.0 -0.014535981936928816 0.35648203499419129 0.0 0.079243963179755128 0.81171902608039093 0.0 -0.014524519002097724 -1.0582726758295107 0.0 0.028379149023494532 -1.5037031404878682 0.0 -0.21503820495921622 0.27813301570730037 0.0 0.0008642243376272285 0.33349063440647675 0.0 -0.096445979822802785 0.29579769271854872 0.0 0.060404707019562728 0.24303711449562654 0.0 -0.08108532756166259 0.2855394141812555 0.0 0.011532162034381399 0.30419386114605307 0.0 0.0078566636857171634 0.28236359847765385 0.0 -0.015054712342911614 0.28756854939522736 0.0 0.23566767560574356 0.31119322782683656 0.0 0.09191009104330683 0.30266681779996807 0.0 0.06166060882020033 0.22787195305541516 0.0 -0.014812041587467233 0.27027226356207934 0.0 -0.050671257105439543 0.20726297401834215 0.0 -0.035569604632034624 0.24393344470472589 0.0 -0.022513658072251808 0.26799636448284281 0.0 0.10649585914267634 0.32271412951652567 0.0 -0.050333923136298531 0.33008481790328259 0.0 -0.18375549551309761 0.26115443974758795 0.0 -0.0050915979173619119 -1.1418516366523961 0.0 0.041872129044158046 0.33773667398305746 0.0 </DataArray>
<DataArray Name="radii" format="ascii" type="Float32">0 1.2 1 1.4 1.4 1 1 1.2 1 1 1.2 1 1 1.4 1 1 1.4 1 1.4 1 1 1 1.4 1 1 1.2 1 1 1.2 1 1 1.2 1 1 1.2 1 1.2 1.4 1 1 1 1.2 1 1.2 1 1 1 1 1 1.2 1 1.2 1.2 1 1 1 1.2 1 1 1 1 1 1 1 1 1.2 1 1 1 1.4 1 1.4 1 1.2 1 1.4 1 1.4 1.2 1 1.4 1.2 1 1 1 1 1 1 1 1 1.4 1 1 1 1 1 1 1 1 1 1 1 1 1 1 1 1 1 1 1 1 1 1 </DataArray>
</PointData>
<CellData/>
</Piece>
</UnstructuredGrid>
</VTKFile>
