<?xml version="1.0" ?>
<VTKFile byte_order="LittleEndian" type="UnstructuredGrid" version="0.1">
<UnstructuredGrid>
<Piece NumberOfCells="0" NumberOfPoints="135">
<Points>
<DataArray NumberOfComponents="3" format="ascii" type="Float32">44.590654974402668 1 2 52.11570695541662 4.9009811984764635 2 60.957041447856184 4.0018117498241583 2 17.076855618015109 6.9906803509031379 2 43.283657196442583 2.2782944074866345 2 43.908043476731159 7.9418777989501441 2 52.818647065526946 3.1859923435329902 2 63.20968247865833 8.2924479805260258 2 15.997275263454508 4.8628866643118327 2 46.396060830232017 4.5285508895229398 2 57.551748298114148 7.2893231599436019 2 57.613333016392872 1 2 15.357116962366831 6.5095866441294872 2 22.268145630239331 9.6576490000486892 2 45.667219864032603 8.3813050808526555 2 54.192644882654108 9.961798986806043 2 20.570401590662268 2.3152103305198914 2 41.873565582242783 2.3044497068118184 2 53.420841832938038 1 2 60.83538699026635 1 2 19.743529670327341 9.7008512146639063 2 44.316321758178425 3.0143005369035087 2 49.074603300462783 2.3133916773571821 2 58.180008758405975 9.0989737868493581 2 64.918101782395453 7.7116642227387597 2 16.904857730413287 3.5463721381546462 2 47.559439719838046 5.3005954202450347 2 57.317640425989318 5.3193228126954457 2 58.717558923983702 5.9583174783595174 2 15.798145037999365 1 2 21.450782130433545 4.0930859419717143 2 51.338520883350277 3.5552585682210034 2 49.201531089893116 8.3294995527938518 2 65.049195113603176 5.702950607812725 2 22.930987520204926 1 2 45.204042074907882 1.9688817664076685 2 54.722085710737048 5.7387728674188665 2 63.431082288945085 5.056263566092535 2 18.938554623459488 4.6788910189298418 2 43.363786474628618 6.3770175451714763 2 41.721216679762271 8.9168097058020628 2 51.795853928426062 2.0955265288885703 2 61.914062336492577 9.5236379405096372 2 15.356343383935782 3.1883516989323226 2 47.840928999200194 1 2 56.281578908240427 9.168534116839222 2 56.167334278423446 1 2 23.648258563502868 6.4936551393444644 2 47.683084527419375 9.9532656454053612 2 52.769988487710229 7.7266908680539386 2 61.17614311877427 2.6170873419180252 2 19.963612866748193 3.4453820789994558 2 55.699675300883435 4.3806467483931595 2 59.886966744232431 1.7159127646173524 2 17.035504404707741 8.875394352132993 2 46.410413197156039 6.6415579778003586 2 50.609268138095544 1 2 61.163554206742809 7.8105687005226025 2 66.447153141291352 8.7596111406795476 2 17.438908526495979 1 2 50.54183985331067 4.898881895756924 2 56.799233919768369 3.6162525831483112 2 58.279904133800528 2.4939516304604661 2 20.421309424064404 6.7837704536627035 2 51.611682970338727 6.4572828234774748 2 50.951951203570346 8.5413432429892566 2 64.327003880945796 3.8872005043414455 2 43.210346616603921 1 2 53.534981313500531 4.5594708373574182 2 59.65194592087353 4.6716929771873481 2 18.800937804882999 6.3492003436601427 2 42.755249543131917 3.7986535875039045 2 44.315498038331953 9.7789455402551884 2 54.541907070610343 3.6325995020933122 2 63.638632125656976 6.6308132554068804 2 17.469150040385752 5.2197221568965313 2 47.768945370756065 3.6307069796199314 2 59.362323664624057 7.5833328021323592 2 56.865304336668608 2.2899641093118848 2 15.214219913022182 8.4053309039244457 2 22.731998068962234 7.8454387143088331 2 47.403752421006452 8.177243466155721 2 55.236671921820061 11.463563554052623 2 63.609868078823482 1 2 20.194463822984755 1 2 41.77260256033037 1 2 53.718531863991288 2.2309647915475748 2 62.503725693644718 2.1559695019724829 2 14.484967151060632 4.9342656420656965 2 18.737164819876607 8.0891592131086352 2 45.1533908403349 3.9816446985982945 2 47.601951213852651 2.2046810701019623 2 60.046140259063151 9.3494115215136837 2 66.338757100602976 6.9493534554336627 2 18.214787446841296 3.4031907427424004 2 49.123772242297981 5.4283972470687161 2 56.179708316696924 5.9979936318944587 2 60.470469567581198 6.057134307821145 2 16.747653197287541 2.1571437346930176 2 22.087698555391249 2.6084486023505078 2 39.962755315866843 7.9911348406271285 2 50.276487425401562 2.7241750762675934 2 48.286861444519651 6.7906063987250871 2 21.622421731785256 1 2 46.334644837771172 1 2 53.338135072473747 6.2368993551835352 2 61.876291657207183 4.9272969349679938 2 20.372576386690355 5.1875775743423942 2 43.706523492211431 4.7925109496967595 2 41.691100987837999 7.1088188285344627 2 52.151781145227957 1 2 63.787246154138359 10.120736002303335 2 46.283849567050083 2.7795811745121526 2 55.803226413565447 7.4093583212067662 2 54.833177462349603 1 2 21.961173020563198 6.0283545093808337 2 49.659045346245385 10.140393112411012 2 54.45014773809644 8.1841551468352005 2 62.131052788749905 1 2 18.706844582285473 2.2304055449830837 2 55.379764613103319 2.4879388259336732 2 58.967252187479573 1 2 16.232533002528463 10.619976599936733 2 45.073047213699724 5.7737737580223651 2 49.29750591581702 1 2 62.115484273513694 6.4663089433587455 2 66.62350669412433 10.5814121442041 2 18.881124498824995 1 2 49.148670994797058 3.937313003827271 2 58.222993264318397 4.0954073615394897 2 59.576036248649331 3.0945635891014942 2 20.945790378992292 8.2942426256411075 2 50.128859281957901 6.7912977207315244 2 52.487986883357458 9.4282732337328401 2 62.705230821695274 3.5125127857377785 2 </DataArray>
</Points>
<Cells>
<DataArray Name="connectivity" format="ascii" type="Int32">0</DataArray>
<DataArray Name="offsets" format="ascii" type="Int32">0</DataArray>
<DataArray Name="types" format="ascii" type="UInt8">1</DataArray>
</Cells>
<PointData>
<DataArray Name="Points" NumberOfComponents="3" format="ascii" type="Float32">44.590654974402668 1 2 52.11570695541662 4.9009811984764635 2 60.957041447856184 4.0018117498241583 2 17.076855618015109 6.9906803509031379 2 43.283657196442583 2.2782944074866345 2 43.908043476731159 7.9418777989501441 2 52.818647065526946 3.1859923435329902 2 63.20968247865833 8.2924479805260258 2 15.997275263454508 4.8628866643118327 2 46.396060830232017 4.5285508895229398 2 57.551748298114148 7.2893231599436019 2 57.613333016392872 1 2 15.357116962366831 6.5095866441294872 2 22.268145630239331 9.6576490000486892 2 45.667219864032603 8.3813050808526555 2 54.192644882654108 9.961798986806043 2 20.570401590662268 2.3152103305198914 2 41.873565582242783 2.3044497068118184 2 53.420841832938038 1 2 60.83538699026635 1 2 19.743529670327341 9.7008512146639063 2 44.316321758178425 3.0143005369035087 2 49.074603300462783 2.3133916773571821 2 58.180008758405975 9.0989737868493581 2 64.918101782395453 7.7116642227387597 2 16.904857730413287 3.5463721381546462 2 47.559439719838046 5.3005954202450347 2 57.317640425989318 5.3193228126954457 2 58.717558923983702 5.9583174783595174 2 15.798145037999365 1 2 21.450782130433545 4.0930859419717143 2 51.338520883350277 3.5552585682210034 2 49.201531089893116 8.3294995527938518 2 65.049195113603176 5.702950607812725 2 22.930987520204926 1 2 45.204042074907882 1.9688817664076685 2 54.722085710737048 5.7387728674188665 2 63.431082288945085 5.056263566092535 2 18.938554623459488 4.6788910189298418 2 43.363786474628618 6.3770175451714763 2 41.721216679762271 8.9168097058020628 2 51.795853928426062 2.0955265288885703 2 61.914062336492577 9.5236379405096372 2 15.356343383935782 3.1883516989323226 2 47.840928999200194 1 2 56.281578908240427 9.168534116839222 2 56.167334278423446 1 2 23.648258563502868 6.4936551393444644 2 47.683084527419375 9.9532656454053612 2 52.769988487710229 7.7266908680539386 2 61.17614311877427 2.6170873419180252 2 19.963612866748193 3.4453820789994558 2 55.699675300883435 4.3806467483931595 2 59.886966744232431 1.7159127646173524 2 17.035504404707741 8.875394352132993 2 46.410413197156039 6.6415579778003586 2 50.609268138095544 1 2 61.163554206742809 7.8105687005226025 2 66.447153141291352 8.7596111406795476 2 17.438908526495979 1 2 50.54183985331067 4.898881895756924 2 56.799233919768369 3.6162525831483112 2 58.279904133800528 2.4939516304604661 2 20.421309424064404 6.7837704536627035 2 51.611682970338727 6.4572828234774748 2 50.951951203570346 8.5413432429892566 2 64.327003880945796 3.8872005043414455 2 43.210346616603921 1 2 53.534981313500531 4.5594708373574182 2 59.65194592087353 4.6716929771873481 2 18.800937804882999 6.3492003436601427 2 42.755249543131917 3.7986535875039045 2 44.315498038331953 9.7789455402551884 2 54.541907070610343 3.6325995020933122 2 63.638632125656976 6.6308132554068804 2 17.469150040385752 5.2197221568965313 2 47.768945370756065 3.6307069796199314 2 59.362323664624057 7.5833328021323592 2 56.865304336668608 2.2899641093118848 2 15.214219913022182 8.4053309039244457 2 22.731998068962234 7.8454387143088331 2 47.403752421006452 8.177243466155721 2 55.236671921820061 11.463563554052623 2 63.609868078823482 1 2 20.194463822984755 1 2 41.77260256033037 1 2 53.718531863991288 2.2309647915475748 2 62.503725693644718 2.1559695019724829 2 14.484967151060632 4.9342656420656965 2 18.737164819876607 8.0891592131086352 2 45.1533908403349 3.9816446985982945 2 47.601951213852651 2.2046810701019623 2 60.046140259063151 9.3494115215136837 2 66.338757100602976 6.9493534554336627 2 18.214787446841296 3.4031907427424004 2 49.123772242297981 5.4283972470687161 2 56.179708316696924 5.9979936318944587 2 60.470469567581198 6.057134307821145 2 16.747653197287541 2.1571437346930176 2 22.087698555391249 2.6084486023505078 2 39.962755315866843 7.9911348406271285 2 50.276487425401562 2.7241750762675934 2 48.286861444519651 6.7906063987250871 2 21.622421731785256 1 2 46.334644837771172 1 2 53.338135072473747 6.2368993551835352 2 61.876291657207183 4.9272969349679938 2 20.372576386690355 5.1875775743423942 2 43.706523492211431 4.7925109496967595 2 41.691100987837999 7.1088188285344627 2 52.151781145227957 1 2 63.787246154138359 10.120736002303335 2 46.283849567050083 2.7795811745121526 2 55.803226413565447 7.4093583212067662 2 54.833177462349603 1 2 21.961173020563198 6.0283545093808337 2 49.659045346245385 10.140393112411012 2 54.45014773809644 8.1841551468352005 2 62.131052788749905 1 2 18.706844582285473 2.2304055449830837 2 55.379764613103319 2.4879388259336732 2 58.967252187479573 1 2 16.232533002528463 10.619976599936733 2 45.073047213699724 5.7737737580223651 2 49.29750591581702 1 2 62.115484273513694 6.4663089433587455 2 66.62350669412433 10.5814121442041 2 18.881124498824995 1 2 49.148670994797058 3.937313003827271 2 58.222993264318397 4.0954073615394897 2 59.576036248649331 3.0945635891014942 2 20.945790378992292 8.2942426256411075 2 50.128859281957901 6.7912977207315244 2 52.487986883357458 9.4282732337328401 2 62.705230821695274 3.5125127857377785 2 </DataArray>
<DataArray Name="forces" NumberOfComponents="3" format="ascii" type="Float32">0.031801029802009051 -0.84559306928436961 0.0 0.052134560859104673 0.16692345051795701 0.0 -0.00017680305815379049 0.0978256989588559 0.0 0.0079426032659560414 0.1792294816224719 0.0 0.00012954745207817767 0.052919331027849237 0.0 -0.094773280790807463 0.1600580796805115 0.0 -0.031795689792931459 0.15684887227613392 0.0 -0.12498778175120745 0.11667730203667001 0.0 -0.055544195992644319 0.16662858575470857 0.0 -0.071901386373022874 0.2442171556565812 0.0 -0.01136101636446557 0.14816036629372228 0.0 0.016725202550365692 -0.77800133095767432 0.0 0.027053590521104898 0.1470015402151395 0.0 0.036098199120724699 0.20026786966626989 0.0 -0.072667351695284821 0.14426468041654436 0.0 0.080394230781681453 0.1305983480927104 0.0 -0.0067356168223031976 0.13446187298457216 0.0 -0.0089485445634426841 0.11712435950009475 0.0 0.0048703088733625943 -0.73694968463341826 0.0 0.0058806150874242125 -0.83192868247230001 0.0 -0.043104344219206947 0.19996207850911282 0.0 -0.03696299641205214 0.13159890359105539 0.0 -0.05526849695940976 0.12481419849724074 0.0 -0.036261422420179074 0.1165858884049889 0.0 -0.027316983797293748 0.23844007346826634 0.0 -0.061848492872571409 0.22101812601556031 0.0 0.039281584147346477 0.12725143587156207 0.0 0.053597193937940824 0.10826247447464904 0.0 0.012215048200707325 0.17639986384125933 0.0 -0.029260912445642495 -0.82161621722208555 0.0 -0.020223349517384033 0.075180510024474206 0.0 -0.077300103081929583 0.20617548960905152 0.0 -0.083186594592554161 0.21918247509896419 0.0 0.050883320819427313 0.1634051489232857 0.0 0.021735752829469046 -0.52710274470608798 0.0 0.0094040502665757586 0.17868102336818809 0.0 0.026092617976368693 0.21899108446961221 0.0 -0.00032908780414185601 0.16646110035472209 0.0 -0.0054772356649027687 0.13370909151202717 0.0 -0.049422467614823926 0.14514574214484077 0.0 0.013650781952877515 0.20037010223720972 0.0 0.035037377969725059 0.12847294860311242 0.0 -0.01157019857712558 0.26828377740646386 0.0 -0.00078953845293638913 0.16798746035413831 0.0 -0.036835776182280844 -0.90546553587453449 0.0 -0.05580926354595557 0.17776106786417489 0.0 0.0065129589553419021 -0.74996847528761812 0.0 -0.029647324617341736 0.14942878994296993 0.0 0.010829788096999526 0.19987151582119361 0.0 -0.15474354771013843 0.24438418276241752 0.0 0.011833099840617062 0.085298464558140649 0.0 -0.05233799778689488 0.15401841644093162 0.0 -0.01275173280187028 0.16505759856912253 0.0 -0.017774062490206799 0.087496409684036935 0.0 0.030160906020221055 0.12239761434491148 0.0 0.022408688208228333 0.15291449796411072 0.0 -0.0093964344340256023 -0.48978373182795537 0.0 0.027943995320073411 0.21909932732044274 0.0 0.010431368712124762 0.17899116203708743 0.0 -0.031288766724086869 -0.72446702449208411 0.0 0.007414480659657512 0.22738799526469311 0.0 0.0075367837606601373 0.12828787663014299 0.0 -0.020687911587082719 0.10840100623591756 0.0 -0.067898926366670331 0.2366822393455838 0.0 -0.032331330527588797 0.15573562026610394 0.0 0.057539770395508477 -0.038052580801150315 0.0 0.065990510194238128 0.17444883959648022 0.0 -0.0046436514576578825 -0.8084755432112829 0.0 0.068042529410584737 0.15464781794811877 0.0 0.0071959721758900579 0.16802591958250973 0.0 -0.023790287572353352 0.11537057627105356 0.0 -0.0067033376961235236 0.10266481448242731 0.0 -0.0098000543164535533 0.15320254598052818 0.0 0.0035939405003890812 0.086976749112740448 0.0 0.08048065442752983 0.14641116733880469 0.0 -0.027504490801653667 0.17877529910430506 0.0 -0.02353032693249324 0.16685267725571543 0.0 0.018992014004824156 0.16806680410816902 0.0 -0.039148771708069685 0.089803963118011254 0.0 -0.0027100180604563429 0.15327083668906677 0.0 -0.02567985297623232 0.16345569997584408 0.0 -0.078362333101037074 0.20019820239601274 0.0 0.099258414691337796 0.14298305468865216 0.0 -0.033146573600737916 -0.80843591426300732 0.0 -0.0049318651792507051 -0.65818790037975672 0.0 -0.012240448261579662 -0.76423833322589707 0.0 -0.0089218045176711613 0.10382164658141153 0.0 0.00090371550680300172 0.15328139923876893 0.0 -0.062940018753143395 0.16978004461675864 0.0 0.061223420355698929 0.12674911654055565 0.0 -0.053091617116560914 0.16763059989240864 0.0 -0.035544629018531615 0.10610853237426912 0.0 -0.027185194641479581 0.18292932373632148 0.0 -0.011335303447079559 0.18704284005706237 0.0 -0.047110406725767551 0.14427714818782977 0.0 -0.0016689124166284486 0.13036507363406363 0.0 0.077425711841403094 0.13790829253470271 0.0 0.019194102253728806 0.19773698700830353 0.0 0.048136484776201284 0.14373352781647644 0.0 0.039885221001948662 0.068702028982976254 0.0 0.0059844215897415509 0.22211656450952502 0.0 0.045305873230998356 -0.023682521298964893 0.0 -0.013946864668459014 0.17839088712872955 0.0 -0.013578254465905409 -0.56286284407423792 0.0 -0.02604951725035198 -0.74000906341060824 0.0 -0.00419092739630679 0.2115050737485481 0.0 -0.043818692247423768 0.2082373463233449 0.0 0.022647172321105385 0.1726987601682205 0.0 -0.020315365547171838 0.15846665836008325 0.0 -0.015088477323076145 0.18110151699277804 0.0 -0.015674727454431943 -0.81411332767753075 0.0 0.059337452320390276 0.095315374109125467 0.0 -0.0092333990618563046 0.18631506897329567 0.0 -0.051859068482973447 0.1492245375211434 0.0 0.007025244550517673 -0.64736467391970076 0.0 -0.041064406580399504 0.15083994527063485 0.0 0.048116927566213566 0.12145249868581642 0.0 -0.099780725594503406 0.091576392054960543 0.0 0.0040815710182449949 -0.8601931710012497 0.0 0.01159403138026445 0.10518158927168109 0.0 -0.0038147435663046791 0.12123747959838832 0.0 0.0048973326902466974 -0.83714078782733858 0.0 -0.031436784207344241 0.069386969965707812 0.0 -0.045394357221238912 0.23726700039975787 0.0 -0.042989230761240893 -0.67278908879101806 0.0 0.053074305243579922 0.22605631182511646 0.0 0.016101364018220623 0.16727946254698656 0.0 -0.019862621181533577 -0.75155568292149155 0.0 0.10455991022825001 0.068050941571671131 0.0 0.042261995730425328 0.1191092915528488 0.0 0.019154339972205975 0.10418117548173711 0.0 0.0060516318327686058 0.23244505428026066 0.0 -0.059191030115926108 0.19382307883005692 0.0 -0.05168628365799352 0.32149684599736394 0.0 -0.0011725820460267711 0.20215415716961566 0.0 </DataArray>
<DataArray Name="radii" format="ascii" type="Float32">1 1 1 1 1 1 1 1 1 1 1 1 1 1 1 1 1 1 1 1 1 1 1 1 1 1 1 1 1 1 1 1 1 1 1 1 1 1 1 1 1 1 1 1 1 1 1 1 1 1 1 1 1 1 1 1 1 1 1 1 1 1 1 1 1 1 1 1 1 1 1 1 1 1 1 1 1 1 1 1 1 1 1 1 1 1 1 1 1 1 1 1 1 1 1 1 1 1 1 1 1 1 1 1 1 1 1 1 1 1 1 1 1 1 1 1 1 1 1 1 1 1 1 1 1 1 1 1 1 1 1 1 1 1 1 </DataArray>
</PointData>
<CellData/>
</Piece>
</UnstructuredGrid>
</VTKFile>
