<?xml version="1.0" ?>
<VTKFile byte_order="LittleEndian" type="UnstructuredGrid" version="0.1">
<UnstructuredGrid>
<Piece NumberOfCells="0" NumberOfPoints="763">
<Points>
<DataArray NumberOfComponents="3" format="ascii" type="Float32">9.7032043133139965 1 2 29.001436719958953 2.3526692846107231 2 76.788933122619483 2.8418805043219821 2 80.081232953753812 2.8526718933253132 2 89.091783486706404 3.9400926706851234 2 2.8599429384103465 1 2 34.824747284148771 2.6090101153440446 2 68.389714336505023 1 2 86.32721338129339 1 2 87.229949706850263 9.9141570258742728 2 5.3761035264159105 7.9545819533186481 2 30.80541748422165 8.315548100272526 2 74.643968696471973 8.7659276056413571 2 79.914229832506763 6.3317176903788503 2 93.095133131361251 4.6317196285654294 2 5.2041801441965498 6.8426361342203874 2 34.937858777976388 3.6464385611993086 2 68.790456392927481 1 2 81.286733069938506 6.9395577704997846 2 87.9999033448901 1 2 4.8971688690178912 1 2 27.365676804858463 1 2 74.961505515172917 3.2764203727319972 2 77.304940724169171 4.3703212661858837 2 88.666921858918613 9.0926389071315565 2 3.3955746102474893 1 2 38.143211766710735 3.2396937673624291 2 70.607765302503793 4.8622325989163686 2 86.144981090200261 3.8803807714114731 2 86.903513383780236 8.7765697680862669 2 8.0914714908301271 4.3483109943472256 2 26.546285265065677 7.678419015506619 2 71.655244616625879 9.6759480886719587 2 76.140865764744987 5.4352716527497682 2 94.440943236858914 2.2350930485498552 2 95.195084857275177 2.0208826092049663 2 1.6648105776306774 6.1675657747576063 2 36.111918405648609 7.2705955548022976 2 72.453974697297738 4.0757042278142039 2 80.699040013238786 1.9186565025451712 2 92.515812261091654 2.2109265312309012 2 12.950065265943868 1 2 30.894775829020922 2.0241875188661758 2 78.683259816074184 3.0741877906222981 2 79.226236854877229 1 2 90.208954913974949 4.4134403859364095 2 1.8453661915200337 2.731769004294712 2 12.475897448609322 6.7830769873887604 2 33.822004075085715 1.3475374352353198 2 68.354747155366056 5.4076274600386132 2 68.354988719244645 2.5530861440314045 2 83.61956436111312 1 2 89.144630085230062 6.195581320337336 2 8.7488245418707677 9.1047103243238183 2 33.878734725103044 5.7901058151455924 2 73.525304807802257 6.2289224979458551 2 77.488204439592991 9.8052078413804757 2 93.186450766652143 8.4558534575535234 2 6.4304288543053696 5.4386987624258811 2 32.474503697768263 4.353835662228807 2 72.817148186036718 1.8888090033027407 2 84.737935746141503 4.2975430551912694 2 90.02051790400337 1.7545833565758955 2 8.385945672631534 2.4171396790537663 2 25.602966282192117 2.7955539196569146 2 28.540897137242084 6.5040576733091378 2 74.362153735501039 2.2004247686700893 2 79.969774990757955 5.3415451486489287 2 95.647616433543106 8.5847109405589066 2 4.8236374672786058 4.4995479279608563 2 37.424032617348942 1 2 68.910609058155657 8.3876188037488149 2 85.744515511979941 7.3854883474096562 2 85.132096627203651 5.5343763959068921 2 8.9777743916239618 7.7079348396343903 2 25.144188341232521 5.9769164497943859 2 73.325643403222742 7.4390856933007399 2 77.764679324701532 6.9002590279938287 2 95.588162430017462 5.9645639551079048 2 96.287901411909417 4.2497842325286532 2 1.051159926568592 7.5442084607491671 2 38.058791467720177 4.5770023859886146 2 72.174932955647506 1.1099061644375556 2 82.9160472487589 2.8734446803572262 2 91.877678801185155 1 2 99.0 4.3028644354646879 2 10.13586348947263 1 2 29.695251049511736 1.1603843740863653 2 76.258052842028079 1 2 81.291568077322125 4.3873775695128572 2 89.878180238846511 5.5298118669450069 2 1 1.7933677402493262 2 32.342289273096348 1 2 67.111307624199924 1 2 86.718978480107992 1 2 86.878957391691486 7.8771830646936349 2 7.3870445366244111 7.8525515955736189 2 12.573937647359369 3.5849672170883387 2 34.093324679118474 8.5578732975418532 2 74.534188961684947 10.022668134128304 2 78.90525441954324 9.0733208855177256 2 94.099236364303351 6.3124481190727462 2 2.7308198695446873 7.2336254950626078 2 33.583712057787444 3.5534370821493151 2 65.507221810644779 1 2 69.9464028068803 1 2 81.489164618585178 8.7025782941411105 2 88.815746610061382 1 2 7.4820946816840372 1 2 28.699776437040772 3.2150835128277748 2 73.736657643715262 3.9589071333074894 2 79.221414736088818 3.9390933502489016 2 92.301440550358294 9.4692087481057747 2 3.6850488656364728 1.8791207815056949 2 37.820740940098155 1 2 70.259344473898366 2.6751628404453589 2 87.827546343167484 3.8294617811655813 2 84.870347549075419 10.982194073028349 2 99.0 2.1292200030974828 2 9.9105186635933471 3.1890446016289915 2 29.597902860699776 9.0732567667414905 2 69.575901625374996 9.4192185106210875 2 76.479800539245844 3.6792679597570097 2 93.12951166627785 1 2 97.254952408952818 1.9724296721066104 2 1.8311913372922737 4.4234303915884814 2 37.099877529747502 8.7220964004205292 2 71.539076340419314 5.3639647030872881 2 80.404846109263659 1 2 93.647178016654806 3.951164866755172 2 11.218784608605953 3.4357273967023736 2 31.621582365904004 1.7773604664599241 2 77.674659724242304 1.60983843697817 2 79.480391303373906 2.1152270269213096 2 91.749339390666776 4.9746601260693151 2 1 1.7933677402493262 2 11.359320942054083 8.2536502411092822 2 35.689460274981407 1.9321698655894095 2 68.494394907656769 4.5265714823561778 2 69.91373885765293 4.2974564042972334 2 81.887464360913171 1.4642008294167239 2 87.796633234515042 6.3684855604656612 2 10.002800926351599 9.9324583707794591 2 13.404890182657148 1 2 32.743446789586642 7.3572961557669556 2 76.113572697879576 6.3500953688319939 2 78.341746733393819 11.527706032732011 2 90.75220780805499 6.5365227265159396 2 7.4056047879118712 3.8245084043559521 2 30.989336050020118 3.7563661366908829 2 66.556654356282479 2.6058079187196848 2 73.040033275788673 3.6593445386674497 2 84.984755017965313 1.5943727660149656 2 88.636736086435661 3.4563896563522749 2 7.6644633630016914 2.0454151506883314 2 27.217398052538563 4.251771813181465 2 30.145625828619576 4.313243099298016 2 38.750512067296604 3.983196934789516 2 74.647019161575358 1 2 83.026554012317462 6.4398701770767524 2 96.947495203036539 7.8267446723151988 2 3.6508422850143925 4.3438252413384468 2 35.492426069308735 3.1876892164985819 2 39.37736769308772 1 2 68.876480849359226 5.967882322699432 2 85.582212281331365 4.7752955796543306 2 84.318423524886583 7.7034180267137584 2 8.8434185162348165 5.0565928731961636 2 23.855871776626326 1.9721142797109932 2 27.687331035267302 5.341515319859373 2 71.299082056311988 6.7133913825577611 2 78.158252427663896 5.8969289417756636 2 95.885632865381524 3.1465890928066522 2 99.0 2.6209203276369535 2 2.1928287667339976 9.5803476764828499 2 25.533065663537897 1 2 36.654920476362584 5.810312352352196 2 70.713120229386959 1 2 82.735646075893413 3.7716896764911607 2 92.306511271175509 1 2 96.672135500357768 6.6953687745737662 2 8.9203504949984378 1.9550760420249442 2 30.46848066183319 2.6380323084536941 2 77.227912690201478 2.2239504734464668 2 79.44117927691164 3.1059450910669257 2 89.631532342207876 3.0083856211245834 2 2.4162105208937792 2.9120210622002514 2 35.549348003027276 1 2 67.983620568391686 1 2 85.466424621555404 1 2 89.166448104996476 10.029201985062562 2 3.7211771467306671 9.5921255913569077 2 31.943807285680322 9.5439699148717985 2 76.265254621872188 9.0080115765026036 2 80.395908533788614 7.3302453118012947 2 94.347019556015482 4.6502246792719504 2 3.4137498975152734 5.9727992116073692 2 34.959479304941901 4.3450414549340426 2 69.17955808038036 1 2 82.172450394388846 6.9530700772220495 2 87.747013489827324 1.8422247916565651 2 5.7720364864242226 1 2 26.467117267745394 1 2 73.786671642442755 2.726974140225654 2 78.651132023314972 5.1043851730688896 2 90.233903267420203 8.4539521217564637 2 3.9195020084502556 3.3331091119781395 2 38.902860747464757 2.9085605776466932 2 69.165348078111876 4.1347522854855905 2 85.913901003219692 1 2 84.302541806383644 9.1839148023741046 2 7.8505806560914202 5.1017341327235313 2 14.826319808314311 1 2 27.840994953572999 8.6157779282705356 2 71.614511279503603 7.9663697766369141 2 74.078398976462694 4.6358168209023747 2 95.133971152055153 2.6939676912890809 2 95.990512014950099 1.4770106929093889 2 3.7313834119756839 5.1141184756588638 2 34.349713388081248 7.6081869940075055 2 65.725012209503461 5.8403765650379578 2 71.090011775086808 4.0419860331361095 2 82.279453156044553 1 2 92.976954237254219 3.5380911124195755 2 12.20160411434825 2.605721943346603 2 32.495065845700452 2.5629299088463169 2 64.83802202987782 4.6230598146292223 2 77.413842848172862 3.7258969583523269 2 78.844723119588508 1 2 90.927541277009226 3.5071795097670053 2 1 3.2194596849431445 2 11.085411744539206 7.1163544883262544 2 32.782779007917448 1 2 41.153044492953661 5.0979088116490896 2 67.866183264444004 6.9538284773435235 2 67.066115570044914 3.4956352439660074 2 82.858713389097815 1.9584257452269984 2 89.900859080237126 6.6520438884760136 2 6.3533200643714585 10.43293893706819 2 35.508454252329116 6.0825526932198333 2 75.334831209535395 6.0431866392492006 2 75.987893926611932 11.543728410307132 2 94.456755435711059 9.6507534941197815 2 6.3868647930406928 4.3752843820575862 2 33.887669971956157 4.3391816616944299 2 71.874537534301396 1 2 84.728863655334521 2.5380285276673855 2 89.253249185533846 1 2 9.2623357492112408 1 2 24.693844331916328 4.8608586258719502 2 30.636459334090979 7.0929374064313695 2 75.197253217963905 1.9135105462122359 2 81.607835385366016 5.146051092572284 2 94.062012328893474 7.2491751186436408 2 5.4445027295452242 5.1048435747713992 2 36.646048340905189 1.9839225981492441 2 66.340835116580877 8.081528108493254 2 70.460715788479348 7.3860015885483667 2 84.913865415905633 6.7592144058158219 2 83.713991187372827 4.7510817634129756 2 10.010593594179479 6.3703864404092911 2 26.355675878889496 5.8937008855445763 2 73.208957123680179 8.9012106990676632 2 77.509298336620546 8.742010779188897 2 96.462790701831508 5.7327830639700679 2 95.444711002102409 3.9315401954586644 2 1 5.6835203805896457 2 36.350220308557823 
[...]
<PointData>
<DataArray Name="Points" NumberOfComponents="3" format="ascii" type="Float32">9.7032043133139965 1 2 29.001436719958953 2.3526692846107231 2 76.788933122619483 2.8418805043219821 2 80.081232953753812 2.8526718933253132 2 89.091783486706404 3.9400926706851234 2 2.8599429384103465 1 2 34.824747284148771 2.6090101153440446 2 68.389714336505023 1 2 86.32721338129339 1 2 87.229949706850263 9.9141570258742728 2 5.3761035264159105 7.9545819533186481 2 30.80541748422165 8.315548100272526 2 74.643968696471973 8.7659276056413571 2 79.914229832506763 6.3317176903788503 2 93.095133131361251 4.6317196285654294 2 5.2041801441965498 6.8426361342203874 2 34.937858777976388 3.6464385611993086 2 68.790456392927481 1 2 81.286733069938506 6.9395577704997846 2 87.9999033448901 1 2 4.8971688690178912 1 2 27.365676804858463 1 2 74.961505515172917 3.2764203727319972 2 77.304940724169171 4.3703212661858837 2 88.666921858918613 9.0926389071315565 2 3.3955746102474893 1 2 38.143211766710735 3.2396937673624291 2 70.607765302503793 4.8622325989163686 2 86.144981090200261 3.8803807714114731 2 86.903513383780236 8.7765697680862669 2 8.0914714908301271 4.3483109943472256 2 26.546285265065677 7.678419015506619 2 71.655244616625879 9.6759480886719587 2 76.140865764744987 5.4352716527497682 2 94.440943236858914 2.2350930485498552 2 95.195084857275177 2.0208826092049663 2 1.6648105776306774 6.1675657747576063 2 36.111918405648609 7.2705955548022976 2 72.453974697297738 4.0757042278142039 2 80.699040013238786 1.9186565025451712 2 92.515812261091654 2.2109265312309012 2 12.950065265943868 1 2 30.894775829020922 2.0241875188661758 2 78.683259816074184 3.0741877906222981 2 79.226236854877229 1 2 90.208954913974949 4.4134403859364095 2 1.8453661915200337 2.731769004294712 2 12.475897448609322 6.7830769873887604 2 33.822004075085715 1.3475374352353198 2 68.354747155366056 5.4076274600386132 2 68.354988719244645 2.5530861440314045 2 83.61956436111312 1 2 89.144630085230062 6.195581320337336 2 8.7488245418707677 9.1047103243238183 2 33.878734725103044 5.7901058151455924 2 73.525304807802257 6.2289224979458551 2 77.488204439592991 9.8052078413804757 2 93.186450766652143 8.4558534575535234 2 6.4304288543053696 5.4386987624258811 2 32.474503697768263 4.353835662228807 2 72.817148186036718 1.8888090033027407 2 84.737935746141503 4.2975430551912694 2 90.02051790400337 1.7545833565758955 2 8.385945672631534 2.4171396790537663 2 25.602966282192117 2.7955539196569146 2 28.540897137242084 6.5040576733091378 2 74.362153735501039 2.2004247686700893 2 79.969774990757955 5.3415451486489287 2 95.647616433543106 8.5847109405589066 2 4.8236374672786058 4.4995479279608563 2 37.424032617348942 1 2 68.910609058155657 8.3876188037488149 2 85.744515511979941 7.3854883474096562 2 85.132096627203651 5.5343763959068921 2 8.9777743916239618 7.7079348396343903 2 25.144188341232521 5.9769164497943859 2 73.325643403222742 7.4390856933007399 2 77.764679324701532 6.9002590279938287 2 95.588162430017462 5.9645639551079048 2 96.287901411909417 4.2497842325286532 2 1.051159926568592 7.5442084607491671 2 38.058791467720177 4.5770023859886146 2 72.174932955647506 1.1099061644375556 2 82.9160472487589 2.8734446803572262 2 91.877678801185155 1 2 99.0 4.3028644354646879 2 10.13586348947263 1 2 29.695251049511736 1.1603843740863653 2 76.258052842028079 1 2 81.291568077322125 4.3873775695128572 2 89.878180238846511 5.5298118669450069 2 1 1.7933677402493262 2 32.342289273096348 1 2 67.111307624199924 1 2 86.718978480107992 1 2 86.878957391691486 7.8771830646936349 2 7.3870445366244111 7.8525515955736189 2 12.573937647359369 3.5849672170883387 2 34.093324679118474 8.5578732975418532 2 74.534188961684947 10.022668134128304 2 78.90525441954324 9.0733208855177256 2 94.099236364303351 6.3124481190727462 2 2.7308198695446873 7.2336254950626078 2 33.583712057787444 3.5534370821493151 2 65.507221810644779 1 2 69.9464028068803 1 2 81.489164618585178 8.7025782941411105 2 88.815746610061382 1 2 7.4820946816840372 1 2 28.699776437040772 3.2150835128277748 2 73.736657643715262 3.9589071333074894 2 79.221414736088818 3.9390933502489016 2 92.301440550358294 9.4692087481057747 2 3.6850488656364728 1.8791207815056949 2 37.820740940098155 1 2 70.259344473898366 2.6751628404453589 2 87.827546343167484 3.8294617811655813 2 84.870347549075419 10.982194073028349 2 99.0 2.1292200030974828 2 9.9105186635933471 3.1890446016289915 2 29.597902860699776 9.0732567667414905 2 69.575901625374996 9.4192185106210875 2 76.479800539245844 3.6792679597570097 2 93.12951166627785 1 2 97.254952408952818 1.9724296721066104 2 1.8311913372922737 4.4234303915884814 2 37.099877529747502 8.7220964004205292 2 71.539076340419314 5.3639647030872881 2 80.404846109263659 1 2 93.647178016654806 3.951164866755172 2 11.218784608605953 3.4357273967023736 2 31.621582365904004 1.7773604664599241 2 77.674659724242304 1.60983843697817 2 79.480391303373906 2.1152270269213096 2 91.749339390666776 4.9746601260693151 2 1 1.7933677402493262 2 11.359320942054083 8.2536502411092822 2 35.689460274981407 1.9321698655894095 2 68.494394907656769 4.5265714823561778 2 69.91373885765293 4.2974564042972334 2 81.887464360913171 1.4642008294167239 2 87.796633234515042 6.3684855604656612 2 10.002800926351599 9.9324583707794591 2 13.404890182657148 1 2 32.743446789586642 7.3572961557669556 2 76.113572697879576 6.3500953688319939 2 78.341746733393819 11.527706032732011 2 90.75220780805499 6.5365227265159396 2 7.4056047879118712 3.8245084043559521 2 30.989336050020118 3.7563661366908829 2 66.556654356282479 2.6058079187196848 2 73.040033275788673 3.6593445386674497 2 84.984755017965313 1.5943727660149656 2 88.636736086435661 3.4563896563522749 2 7.6644633630016914 2.0454151506883314 2 27.217398052538563 4.251771813181465 2 30.145625828619576 4.313243099298016 2 38.750512067296604 3.983196934789516 2 74.647019161575358 1 2 83.026554012317462 6.4398701770767524 2 96.947495203036539 7.8267446723151988 2 3.6508422850143925 4.3438252413384468 2 35.492426069308735 3.1876892164985819 2 39.37736769308772 1 2 68.876480849359226 5.967882322699432 2 85.582212281331365 4.7752955796543306 2 84.318423524886583 7.7034180267137584 2 8.8434185162348165 5.0565928731961636 2 23.855871776626326 1.9721142797109932 2 27.687331035267302 5.341515319859373 2 71.299082056311988 6.7133913825577611 2 78.158252427663896 5.8969289417756636 2 95.885632865381524 3.1465890928066522 2 99.0 2.6209203276369535 2 2.1928287667339976 9.5803476764828499 2 25.533065663537897 1 2 36.654920476362584 5.810312352352196 2 70.713120229386959 1 2 82.735646075893413 3.7716896764911607 2 92.306511271175509 1 2 96.672135500357768 6.6953687745737662 2 8.9203504949984378 1.9550760420249442 2 30.46848066183319 2.6380323084536941 2 77.227912690201478 2.2239504734464668 2 79.44117927691164 3.1059450910669257 2 89.631532342207876 3.0083856211245834 2 2.4162105208937792 2.9120210622002514 2 35.549348003027276 1 2 67.983620568391686 1 2 85.466424621555404 1 2 89.166448104996476 10.029201985062562 2 3.7211771467306671 9.5921255913569077 2 31.943807285680322 9.5439699148717985 2 76.265254621872188 9.0080115765026036 2 80.395908533788614 7.3302453118012947 2 94.347019556015482 4.6502246792719504 2 3.4137498975152734 5.9727992116073692 2 34.959479304941901 4.3450414549340426 2 69.17955808038036 1 2 82.172450394388846 6.9530700772220495 2 87.747013489827324 1.8422247916565651 2 5.7720364864242226 1 2 26.467117267745394 1 2 73.786671642442755 2.726974140225654 2 78.651132023314972 5.1043851730688896 2 90.233903267420203 8.4539521217564637 2 3.9195020084502556 3.3331091119781395 2 38.902860747464757 2.9085605776466932 2 69.165348078111876 4.1347522854855905 2 85.913901003219692 1 2 84.302541806383644 9.1839148023741046 2 7.8505806560914202 5.1017341327235313 2 14.826319808314311 1 2 27.840994953572999 8.6157779282705356 2 71.614511279503603 7.9663697766369141 2 74.078398976462694 4.6358168209023747 2 95.133971152055153 2.6939676912890809 2 95.990512014950099 1.4770106929093889 2 3.7313834119756839 5.1141184756588638 2 34.349713388081248 7.6081869940075055 2 65.725012209503461 5.8403765650379578 2 71.090011775086808 4.0419860331361095 2 82.279453156044553 1 2 92.976954237254219 3.5380911124195755 2 12.20160411434825 2.605721943346603 2 32.495065845700452 2.5629299088463169 2 64.83802202987782 4.6230598146292223 2 77.413842848172862 3.7258969583523269 2 78.844723119588508 1 2 90.927541277009226 3.5071795097670053 2 1 3.2194596849431445 2 11.085411744539206 7.1163544883262544 2 32.782779007917448 1 2 41.153044492953661 5.0979088116490896 2 67.866183264444004 6.9538284773435235 2 67.066115570044914 3.4956352439660074 2 82.858713389097815 1.9584257452269984 2 89.900859080237126 6.6520438884760136 2 6.3533200643714585 10.43293893706819 2 35.508454252329116 6.0825526932198333 2 75.334831209535395 6.0431866392492006 2 75.987893926611932 11.543728410307132 2 94.456755435711059 9.6507534941197815 2 6.3868647930406928 4.3752843820575862 2 33.887669971956157 4.3391816616944299 2 71.874537534301396 1 2 84.728863655334521 2.5380285276673855 2 89.253249185533846 1 2 9.2623357492112408 1 2 24.693844331916328 4.8608586258719502 2 30.636459334090979 7.0929374064313695 2 75.197253217963905 1.9135105462122359 2 81.607835385366016 5.146051092572284 2 94.062012328893474 7.2491751186436408 2 5.4445027295452242 5.1048435747713992 2 36.646048340905189 1.9839225981492441 2 66.340835116580877 8.081528108493254 2 70.460715788479348 7.3860015885483667 2 84.913865415905633 6.7592144058158219 2 83.713991187372827 4.7510817634129756 2 10.010593594179479 6.3703864404092911 2 26.355675878889496 5.8937008855445763 2 73.208957123680179 8.9012106990676632 2 77.509298336620546 8.742010779188897 2 96.462790701831508 5.7327830639700679 2 95.444711002102409 3.9315401954586644 2 1 5.6835203805896457 2 36.350220308557823 4.4938096313752096 2 71.482228051951623 1 2 81.615079064702087 2.927511553368999 2 91.001182845790296 1.9743470644718497 2 97.382756346600843 3.336529508501914 2 10.798295154147647 2.0048040005241221 2 27.867249328825284 1.8745137993140406 2 41.805950696938524 1.876412090053448 2 76.471095473686745 1.9665508210618743 2 82.064261574870315 4.1456008764440462 2 88.391547315916483 4.4470192382401859 2 1 1.7933677402493262 2 33.254171716678904 1 2 66.614973752511403 1 2 87.010232542977434 3.2766946307994766 2 87.920099831090624 8.1020238304156003 2 7.6766141905097829 6.3069811088226366 2 11.965932127049518 4.4096207223626633 2 35.105271912187114 9.9418637933738747 2 72.092484046496594 10.985291762405266 2 78.753329073807805 7.4232281363791177 2 92.508060708420643 5.9317573263616454 2 4.254120416443067 7.281706474881366 2 22.529971954138389 7.822787747561744 2 31.305286809273909 2.9107412597293347 2 64.82060661982689 1.8227306131423699 2 69.562603936234936 1 2 80.31346586244878 9.527453816316644 2 89.67674923360525 1 2 6.5958733187177812 1 2 29.558213828670834 2.9334107822189717 2 73.574943258340298 5.3935620351778208 2 78.441180602578726 4.2966221977332504 2 91.330282515439691 10.99737099400596 2 4.6829813801009132 1.7924100735099007 2 38.312201196877595 1 2 71.834755614439075 3.4845405877984028 2 86.969291038979634 4.0063533624073733 2 82.32027259169304 9.538418841538741 2 98.073488063615088 2.2420346707039789 2 8.2654523805542457 3.3555557896413233 2 27.382369711762873 9.9341581017493166 2 69.496781657795694 11.607875067218295 2 75.826161135007652 4.4450221622467154 2 93.877428500890232 2.2634911253238812 2 96.432991889839641 1 2 1 5.0299801984423036 2 38.331860387185877 9.9456249030237398 2 72.68837322444999 6.6726299420465542 2 80.12205135183865 2.1986406686006399 2 93.293697978344881 2.1300806943194415 2 11.401055288528077 2.4896038701596535 2 21.587355617156856 1 2 29.894355959308768 2.1203194848590092 2 78.016641943213884 1 2 81.462005579565925 2.1565868694222603 2 92.084901321837734 3.9197167929382504 2 2.4930395704161294 1.8297178418630691 2 13.598772202517132 9.4853402652801968 2 34.845118246991028 1.9110634167235889 2 40.19648917145512 6.6887605237428174 2 66.731860260122417 4.634825797517796 2 69.292973922314914 3.2412967672469231 2 83.632825904208815 1.66837542543983 2 87.237250555105618 4.6737572193934689 2 10.155775969903093 8.3691469206161457 2 14.339999738029098 1 2 32.149337409823779 6.1203138855416155 2 74.996858234058507 7.040929394523249 2 81.688771382091048 11.456612074255677 2 92.079702031974392 6.6876130041879769 2 6.5321670811934744 3.6460877935551159 2 29.121375400901087 3.9093054623986934 2 64.004342781415104 2.1460503553508357 2 65.93855578996147 1 2 73.434975980257676 1 2 84.093008811383257 1 2 87.13662005878507 1 2 6.8735197364488725 2.0831253751498853 2 26.415767768350189 4.7178795160182743 2 31.209509406719715 5.6473442437132091 2 40.104437446496355 5.097060560863059 2 75.670106564331263 2.2962645881123231 2 82.457883081690866 4.8863761513014756 2 97.206342740803933 9.0667782177319314 2 4.1991274490028587 2.5107227004068005 2 16.160828556794179 8.7770851373998831 2 36.839232092388464 3.6177839321471068 2 38.646577537329605 1.7337306429306039 2 68.710733126475816 6.9893683742617974 2 85.737081061694013 6.2592789513010745 2 83.563008850698424 8.2178486319211252 2 9.6348717022921875 4.6608857662018455 2 24.611874257215902 1 2 29.159303290370548 5.8636381984507997 2 70.768591414929318 5.6871287191495883 2 76.964144282625 5.3145538168941231 2 94.376745375979127 3.7613709961231647 2 99.0 3.7223991705263253 2 2.5076723699383425 8.3852044125377247 2 26.008989355551364 1 2 37.246651667736394 6.3553826010682544 2 63.132120343109371 2.593131028030335 2 70.323450216070654 1 2 83.641837909984901 3.4179440681213502 2 92.710847274062189 1 2 98.006337777326394 5.1654458116990645 2 11.041813162023933 1 2 28.183706564328173 2.4973557054279936 2 76.675307369673689 1 2 79.973513302257729 3.9743396946629446 2 88.996205279650695 5.2399448424111856 2 2.7755766482828914 2.3556414873762055 2 35.057205053665967 1 2 67.522207695872666 1.9172354851891169 2 87.154631298328681 2.1907341824753486 2 85.864032021236341 10.114452866359137 2 6.5348066427723133 7.9861165308520334 2 31.978876433028823 8.148884910914985 2 45.216145707312492 1 2 75.575055373851498 9.7297361016537938 2 78.73120926699508 6.5238438962786409 2 92.437524611313506 4.5374510022087682 2 4.4854021892743292 5.4615803125041857 2 15.889146275171989 5.8269791398982385 2 35.24554093182509 5.0102085641905783 2 69.151607345706253 2.4037206175149857 2 81.674517354869124 6.0325703914998323 2 89.086094843084538 1.9540923518451649 2 5.7210674389287544 2.4739583509250731 2 28.392865440876648 1 2 74.193369705150758 3.3373067614007095 2 77.81326188816071 4.9656479567218366 2 89.78699381806328 7.63942325470473 2 4.3643002733057088 1 2 37.621254392415395 3.8251073192788301 2 71.209810396552314 2.8786457866344852 2 85.283020101231031 2.3634008452053319 2 85.58486728415744 9.0003394359206244 2 8.8489217010611672 3.9315513225265786 2 25.70087207100714 7.0018997234548328 2 70.59629284953958 9.2176059414720619 2 76.547333017088462 4.511602480191292 2 94.818948306574015 1 2 95.271490734595716 1 2 1 6.700822024088918 2 36.987923573934829 7.4437313437540817 2 72.258243049159645 4.9533351983802891 2 80.946608769894354 2.7047451438863557 2 92.732160213104038 2.8078613395863865 2 13.918389708334235 2.0996731997772251 2 31.311237333256759 1 2 78.386238123225752 2.0183867044483832 2 78.446389977943724 1 2 90.0526165490853 3.649949750164589 2 1 2.7358135425641388 2 12.476034772614428 4.968313549122727 2 19.87400137771138 4.076507499018569 2 34.540228592889015 1 2 67.541344318793051 4.2185777113862946 2 68.079685453371312 3.7936119505993404 2 84.975881331789495 1 2 88.254837675569462 5.6767624115224198 2 7.5801097879952266 9.3457950159803165 2 33.09678645970677 5.5287654089504761 2 74.444689647091906 6.0537848668546559 2 78.712205734732578 10.146626241465839 2 92.963874872966571 7.2222652930040336 2 6.8910514785446626 6.2458210226012465 2 32.362242043946289 5.2373882752581551 2 72.575665301391638 1 2 84.345777618351022 3.0591303579372058 2 90.16278518254515 1 2 7.9212821165529146 1 2 26.216202058734201 4.0186662258848944 2 28.246881366390625 7.5794383931585756 2 74.247867418656227 1 2 80.48431686238537 4.5229745704988202 2 94.407502648978721 8.2357749629779651 2 5.7869373980431691 3.2788279207286317 2 37.722579584698423 2.7079858772170065 2 45.125265875468962 5.1342861854953421 2 69.43340953725 7.742152358891075 2 86.431284401680941 6.818650395309148 2 84.374615726623318 5.1481259276547782 2 8.4534324329770865 6.1043697055149382 2 18.060051054625667 2.8751169307978595 2 25.785574263573654 5.2467492742724495 2 73.887751156349267 8.1466362054272121 2 77.310261629802426 7.7201006649753179 2 95.169816526844627 4.7330916571792301 2 97.368225411411217 5.5205241666311142 2 2.5679243922054478 6.4479646892942375 2 37.634151667765742 5.4805156451851502 2 73.098744186446382 2.9544071787374895 2 82.245277428766897 2.3782870968366074 2 90.131654369013177 2.4262395485655333 2 98.125733181183861 3.4331273554491304 2 9.6014504227002213 2.2337488937900187 2 29.419763818262371 1 2 75.865606884463958 1 2 80.787236006569387 5.3504739038709097 2 90.745426092087527 5.5278745246123862 2 1.9536553617677195 1 2 33.058790559410433 2.0962964294818738 2 67.54459963187027 1 2 85.984067738334332 1.9205423512594271 2 87.320397776087631 6.9656448825424677 2 6.2163620079992619 6.8979602186920115 2 13.409862683182903 3.4121058188130426 2 33.180358232416403 9.0052350959639771 2 74.508817044182592 11.31064669952872 2 78.365436332328244 8.1927587796594636 2 93.314033379579229 5.9475955206184405 2 3.4972812094899219 7.9381507359917123 2 34.220215847691151 3.0922332308683922 2 64.569599887129598 1 2 70.474196377076098 2.0806634248180647 2 82.746737701471787 8.5202490614928443 2 89.171692220861587 2.6305048315664892 2 6.1895666777942564 1 2 27.59022322309837 2.8284665814596957 2 74.610281632659252 5.1875794506786468 2 80.542946356924546 3.5298337683980336 2 91.334009026617125 8.5760221476954221 2 3.8917089304578911 1 2 37.015841829719569 1 2 70.621322050938602 3.7250675612132578 2 88.178457352283033 2.9299884766506872 2 83.700917113644067 12.067520736381166 2 98.323336619555818 1 2 9.0762536184490159 2.8452607528979037 2 29.422451921699636 10.510741276998123 2 61.886169859020285 4.8766432660465018 2 68.917339073987989 10.114885718705462 2 75.733354487685645 3.2256479622231811 2 93.542186956110186 1 2 97.343037132622385 1 2 1 4.3770695115987976 2 36.792252502905328 9.8775411465349912 2 73.112561996105384 4.6502760933046012 2 81.256654916776156 1 2 94.835111109942346 3.2822642906729285 2 10.600849375296415 4.2651266834931336 2 31.881292919976865 1 2 78.961815932441041 2.3898049602478295 2 79.609893643370256 1 2 91.350750366498403 3.9741605717151542 2 1 1 2 12.500561231447577 7.6698059576009205 2 36.034681388817297 1 2 67.475105211461269 5.0504569163785398 2 69.977160815039852 3.4262594546179934 2 81.744684534103243 1 2 87.796843211092977 5.0632388899498011 2 11.630571277328498 9.6356050365871457 2 13.356935897278692 2.3350330201781886 2 33.404956603675956 6.8476011831745867 2 75.900309011707265 7.2495431804977928 2 79.966660944641049 11.21218647083016 2 91.634204793073849 5.7875198362238045 2 6.9450701323287598 2.8693921600099399 2 31.946806854422832 3.6032854835671584 2 65.826051680034567 2.1597950549855689 2 72.789449874613936 2.4365063953436636 2 84.50079444032059 1 2 87.57272770862599 2.7252133268697012 2 8.3515922023206155 1 2 27.007540337325377 3.286797706380558 2 28.84382407171341 4.9235743075418705 2 39.294594102613722 4.7464921149053758 2 61.514351163135437 2.4518929258921371 2 73.843999468324995 1 2 84.093332753074336 6.691222889148368 2 98.577102249674212 8.2533478559417937 2 3.3828513525674366 2.7218167512854805 2 36.091161774926952 3.7139924461040827 2 39.851340477419292 2.3554138677519627 2 62.104020559549021 7.4634560133676411 2 69.278658982354628 5.0581982473912142 2 85.093074460450055 3.4689283702885643 2 85.235967143308372 8.1527122596844528 2