<?xml version="1.0" ?>
<VTKFile byte_order="LittleEndian" type="UnstructuredGrid" version="0.1">
<UnstructuredGrid>
<Piece NumberOfCells="0" NumberOfPoints="38">
<Points>
<DataArray NumberOfComponents="3" format="ascii" type="Float32">0 0 0 10.436566416213973 1.2 2 25.252148765713002 8.1188255293167657 2 37.856575565019149 6.2496854244545688 2 67.648737360808212 3.4951541597848697 2 94.132919896985001 5.5278308507661711 2 10.11196606361516 5.2387371091327628 2 28.823705089624248 1.2 2 68.903790532484109 9.0291965591811341 2 98.6 6.2053238024950161 2 12.276065330780295 3.2215349876209474 2 23.638481439744762 4.0525225313628859 2 37.145042961156442 1 2 67.417571981827336 1.4 2 95.506338869705772 7.5247843039506268 2 28.591421137466636 4.9082658356004147 2 38.546043248688562 1.4 2 65.678024893621256 1.5999999999999999 2 96.506890937968834 1.2 2 26.798920874178663 3.0134375495361088 2 38.975089814489294 4.1990070486978182 2 98.4 3.2346542569590304 2 10.696115044153448 3.8576288789447353 2 24.895916221597151 3.4123029730032552 2 28.232791606869643 3.3726935227673422 2 67.104558627188993 5.443382471721848 2 96.685502614882409 2.8619418931616893 2 97.606930142596283 4.5351160555189765 2 12.040426332839049 1.5999999999999999 2 25.055756223213631 5.9124637409381515 2 13.024220217352601 7.4593731869054176 2 66.321731382346414 3.1273409501862783 2 40.374716921404385 3.1153319269039876 2 11.857836177679509 5.5796753757654605 2 40.076977602233335 1.5999999999999999 2 25.571293799878497 1.5999999999999999 2 27.374951975717604 1.5999999999999999 2 67.900609014592973 7.349784990831564 2 </DataArray>
</Points>
<Cells>
<DataArray Name="connectivity" format="ascii" type="Int32">0</DataArray>
<DataArray Name="offsets" format="ascii" type="Int32">0</DataArray>
<DataArray Name="types" format="ascii" type="UInt8">1</DataArray>
</Cells>
<PointData>
<DataArray Name="Points" NumberOfComponents="3" format="ascii" type="Float32">0 0 0 10.436566416213973 1.2 2 25.252148765713002 8.1188255293167657 2 37.856575565019149 6.2496854244545688 2 67.648737360808212 3.4951541597848697 2 94.132919896985001 5.5278308507661711 2 10.11196606361516 5.2387371091327628 2 28.823705089624248 1.2 2 68.903790532484109 9.0291965591811341 2 98.6 6.2053238024950161 2 12.276065330780295 3.2215349876209474 2 23.638481439744762 4.0525225313628859 2 37.145042961156442 1 2 67.417571981827336 1.4 2 95.506338869705772 7.5247843039506268 2 28.591421137466636 4.9082658356004147 2 38.546043248688562 1.4 2 65.678024893621256 1.5999999999999999 2 96.506890937968834 1.2 2 26.798920874178663 3.0134375495361088 2 38.975089814489294 4.1990070486978182 2 98.4 3.2346542569590304 2 10.696115044153448 3.8576288789447353 2 24.895916221597151 3.4123029730032552 2 28.232791606869643 3.3726935227673422 2 67.104558627188993 5.443382471721848 2 96.685502614882409 2.8619418931616893 2 97.606930142596283 4.5351160555189765 2 12.040426332839049 1.5999999999999999 2 25.055756223213631 5.9124637409381515 2 13.024220217352601 7.4593731869054176 2 66.321731382346414 3.1273409501862783 2 40.374716921404385 3.1153319269039876 2 11.857836177679509 5.5796753757654605 2 40.076977602233335 1.5999999999999999 2 25.571293799878497 1.5999999999999999 2 27.374951975717604 1.5999999999999999 2 67.900609014592973 7.349784990831564 2 </DataArray>
<DataArray Name="forces" NumberOfComponents="3" format="ascii" type="Float32">0 0 0 0.12561460338552166 -1.4276167959066852 0.0 0.061506898597119719 0.47739351191585799 0.0 -0.084186551276255628 0.58486807513212391 0.0 -0.034087786828101541 0.40485927521011117 0.0 0.0055592050371789936 0.21944622692040691 0.0 -0.098306089419862186 0.2346329996118226 0.0 -0.089805859182022107 -1.1701466272370107 0.0 -0.016459922151950114 0.18641975065610175 0.0 0.5785621313456859 0.52350852132297243 0.0 -0.17011145038469594 0.83522323270048027 0.0 -0.063701374479039563 0.45651317334421426 0.0 0.3495453492829127 -1.5406221273173721 0.0 0.048925867099772313 -1.748813001578418 0.0 0.19388645660955961 0.387643202522027 0.0 0.01204774589344787 0.17640268751925775 0.0 0.14074185596176547 -1.1853827218395911 0.0 0.055577091137359313 -1.907492043736376 0.0 0.07001317409667196 -1.1896075017871812 0.0 0.1202789663196443 0.29194276447482448 0.0 -0.15243959596490941 0.35971443664698366 0.0 1.5449131158958898 0.791768923163783 0.0 -0.11805768773001522 0.44997307479427218 0.0 0.046852693863934425 0.43337046302244797 0.0 0.02890416353707953 0.18608457734823763 0.0 0.095266554476048329 0.39373897191791046 0.0 0.022659919144519369 0.22410151695908398 0.0 0.020570793737122672 0.20026389626773511 0.0 0.078444342568569247 -1.6812952141679569 0.0 0.0060550180074223636 0.15394930708362098 0.0 -0.012848227455968614 0.36988382286456212 0.0 0.023230296042009546 0.79829852736348006 0.0 -0.16336583683338668 0.85689752071462033 0.0 -0.0011748877213033637 0.40263135176104781 0.0 0.025677545035163674 -1.567855523521249 0.0 0.10585250969750271 -1.6020891401791744 0.0 -0.058109933201183628 -1.5975195868886307 0.0 0.02058037349163816 0.2320955431537024 0.0 </DataArray>
<DataArray Name="radii" format="ascii" type="Float32">0 1.2 1.4 1.4 1.2 1 1 1.2 1 1.4 1.5999999999999999 1.4 1 1.4 1 1 1.4 1.5999999999999999 1.2 1 1.2 1.5999999999999999 1.2 1.2 1 1.2 1 1 1.5999999999999999 1 1.2 1.5999999999999999 1.5999999999999999 1.2 1.5999999999999999 1.5999999999999999 1.5999999999999999 1 </DataArray>
</PointData>
<CellData/>
</Piece>
</UnstructuredGrid>
</VTKFile>
