<?xml version="1.0" ?>
<VTKFile byte_order="LittleEndian" type="UnstructuredGrid" version="0.1">
<UnstructuredGrid>
<Piece NumberOfCells="0" NumberOfPoints="86">
<Points>
<DataArray NumberOfComponents="3" format="ascii" type="Float32">8.0427851403972532 1.4 2 30.893674725376748 1.4 2 76.980385878920771 1.4 2 79.564032646178418 3.1286986144517335 2 87.173355763974115 4.6666640205890468 2 1.4 1.4 2 33.581095880198255 2.8964143768678037 2 69.039382378657905 1.4 2 84.943082319209111 1.4 2 86.234740474783933 8.5479307388610568 2 6.0316842386174097 7.2879898267207244 2 31.617619248528737 8.4982783747774118 2 75.253068590018231 8.9775069751374552 2 79.338008618089432 7.1115702145766857 2 91.900662308844318 5.1637507851766191 2 3.5385173593188211 5.757509125037334 2 34.219446138918322 4.7472139120098378 2 71.036682613042444 1.4 2 81.534795108620486 7.6040919295068639 2 87.013594246245532 1.4 2 5.6962240048576191 1.4 2 29.773434721090194 3.250915623051831 2 74.760487965313544 3.0199813837707477 2 78.369724498369592 4.920245352538914 2 89.045530599774068 9.1866110037470641 2 3.5742298820921303 1.4 2 37.752386919051361 3.3483652120213763 2 71.234408221232059 5.0517361637696689 2 85.782374551641254 3.2658926855729788 2 83.848545143551974 7.9657085105588834 2 7.9725381659807208 4.8113264604172752 2 29.095683631351363 7.8850095634811046 2 71.477437559269617 9.4062447930988196 2 76.013026704347652 4.6676358044698301 2 91.729860376480389 1.4 2 94.049154302708203 1.4 2 1.4 4.869598161148402 2 35.978111261603274 7.7085499172193064 2 73.490758135325535 4.7222696517336331 2 81.004700018617001 1.4 2 90.616794881618475 3.088871715900261 2 9.2517230215102639 3.049746142005795 2 32.644450857651144 1.4 2 77.224389247637674 3.0316727002682269 2 78.973683356663912 1.4 2 89.454970501638968 4.8464487152910509 2 1.7757777181781811 3.0543347763100108 2 10.973042585317589 7.5178622753738038 2 34.863170462782179 1.4 2 68.861206037428005 5.1972617620954855 2 69.974849064832242 3.2065338830716565 2 83.038663513513526 1.4 2 87.880412203589145 6.804353488722036 2 7.9442215478202325 9.2098342378954907 2 32.880883959632854 6.3976730186914805 2 74.754486439936528 6.5459634095342576 2 78.013378402320768 9.3071585350510482 2 90.407819914958665 7.0556065335936422 2 5.6956539526817762 4.9525290745261508 2 31.80821589227898 3.8853972289350693 2 73.127595535232572 1.4 2 83.927457148134877 3.570020836294721 2 88.211392512600128 2.8422528875883124 2 6.7201951693938904 2.9692942719821245 2 26.422061834070483 4.4410215942283724 2 30.409282234429241 5.7530899258949511 2 75.124221203198772 1.4 2 80.735607124485227 5.12264315601817 2 92.872653254576861 7.5404169303493651 2 4.1749229342479675 3.3117283531563868 2 35.965554432632089 2.8460351589114468 2 70.083635456039616 7.1729981866104167 2 85.324680411140122 5.8925753646064596 2 82.985623039280767 5.515862826315213 2 8.6887227129693123 6.8312431399789793 2 27.061121052222486 6.6459536951127021 2 72.583711645056965 7.1310156188794549 2 76.995795875221319 6.9240521000888986 2 92.92283593002125 3.261558519060674 2 95.095666493273512 3.2622266441801906 2 1.4154314936272412 7.3501988780052985 2 36.161003254117134 5.199945371335855 2 72.28018392684865 3.0286740290130854 2 81.848364421696701 3.2353494013939024 2 89.413001535847613 1.4 2 96.061418577380721 5.3807957544383296 2 </DataArray>
</Points>
<Cells>
<DataArray Name="connectivity" format="ascii" type="Int32">0</DataArray>
<DataArray Name="offsets" format="ascii" type="Int32">0</DataArray>
<DataArray Name="types" format="ascii" type="UInt8">1</DataArray>
</Cells>
<PointData>
<DataArray Name="Points" NumberOfComponents="3" format="ascii" type="Float32">8.0427851403972532 1.4 2 30.893674725376748 1.4 2 76.980385878920771 1.4 2 79.564032646178418 3.1286986144517335 2 87.173355763974115 4.6666640205890468 2 1.4 1.4 2 33.581095880198255 2.8964143768678037 2 69.039382378657905 1.4 2 84.943082319209111 1.4 2 86.234740474783933 8.5479307388610568 2 6.0316842386174097 7.2879898267207244 2 31.617619248528737 8.4982783747774118 2 75.253068590018231 8.9775069751374552 2 79.338008618089432 7.1115702145766857 2 91.900662308844318 5.1637507851766191 2 3.5385173593188211 5.757509125037334 2 34.219446138918322 4.7472139120098378 2 71.036682613042444 1.4 2 81.534795108620486 7.6040919295068639 2 87.013594246245532 1.4 2 5.6962240048576191 1.4 2 29.773434721090194 3.250915623051831 2 74.760487965313544 3.0199813837707477 2 78.369724498369592 4.920245352538914 2 89.045530599774068 9.1866110037470641 2 3.5742298820921303 1.4 2 37.752386919051361 3.3483652120213763 2 71.234408221232059 5.0517361637696689 2 85.782374551641254 3.2658926855729788 2 83.848545143551974 7.9657085105588834 2 7.9725381659807208 4.8113264604172752 2 29.095683631351363 7.8850095634811046 2 71.477437559269617 9.4062447930988196 2 76.013026704347652 4.6676358044698301 2 91.729860376480389 1.4 2 94.049154302708203 1.4 2 1.4 4.869598161148402 2 35.978111261603274 7.7085499172193064 2 73.490758135325535 4.7222696517336331 2 81.004700018617001 1.4 2 90.616794881618475 3.088871715900261 2 9.2517230215102639 3.049746142005795 2 32.644450857651144 1.4 2 77.224389247637674 3.0316727002682269 2 78.973683356663912 1.4 2 89.454970501638968 4.8464487152910509 2 1.7757777181781811 3.0543347763100108 2 10.973042585317589 7.5178622753738038 2 34.863170462782179 1.4 2 68.861206037428005 5.1972617620954855 2 69.974849064832242 3.2065338830716565 2 83.038663513513526 1.4 2 87.880412203589145 6.804353488722036 2 7.9442215478202325 9.2098342378954907 2 32.880883959632854 6.3976730186914805 2 74.754486439936528 6.5459634095342576 2 78.013378402320768 9.3071585350510482 2 90.407819914958665 7.0556065335936422 2 5.6956539526817762 4.9525290745261508 2 31.80821589227898 3.8853972289350693 2 73.127595535232572 1.4 2 83.927457148134877 3.570020836294721 2 88.211392512600128 2.8422528875883124 2 6.7201951693938904 2.9692942719821245 2 26.422061834070483 4.4410215942283724 2 30.409282234429241 5.7530899258949511 2 75.124221203198772 1.4 2 80.735607124485227 5.12264315601817 2 92.872653254576861 7.5404169303493651 2 4.1749229342479675 3.3117283531563868 2 35.965554432632089 2.8460351589114468 2 70.083635456039616 7.1729981866104167 2 85.324680411140122 5.8925753646064596 2 82.985623039280767 5.515862826315213 2 8.6887227129693123 6.8312431399789793 2 27.061121052222486 6.6459536951127021 2 72.583711645056965 7.1310156188794549 2 76.995795875221319 6.9240521000888986 2 92.92283593002125 3.261558519060674 2 95.095666493273512 3.2622266441801906 2 1.4154314936272412 7.3501988780052985 2 36.161003254117134 5.199945371335855 2 72.28018392684865 3.0286740290130854 2 81.848364421696701 3.2353494013939024 2 89.413001535847613 1.4 2 96.061418577380721 5.3807957544383296 2 </DataArray>
<DataArray Name="forces" NumberOfComponents="3" format="ascii" type="Float32">-0.024631013211053432 -1.1315967724467817 0.0 -0.014749758243496149 -0.60413555908244831 0.0 0.0087733977265612717 -1.1675695045987813 0.0 0.019788065628036255 0.37935096118041006 0.0 0.038640963989561183 0.31245757450608364 0.0 -0.87778986927490066 -1.0675355781442848 0.0 -0.0068538907460296006 0.34389612432574823 0.0 0.001008606632635467 -1.0003295715646303 0.0 0.027784585229537806 -1.0545117163366813 0.0 0.057430825967295984 0.37520614215488685 0.0 -0.10179866651748296 0.39167128103500642 0.0 0.018859938447158275 0.34762993735735964 0.0 -0.025639031892182501 0.39108190544197174 0.0 -0.014108702570470144 0.38580901962042358 0.0 0.039789161888923785 0.37454557554179535 0.0 0.029533380233612821 0.5366109056593612 0.0 -0.0078624809902823056 0.32994184110246771 0.0 -0.005700765319708756 -1.2043507779491245 0.0 -0.0058695868430842235 0.44649560196395 0.0 0.048153079925977282 -1.1834157580903739 0.0 -0.057164577636042491 -1.0594784332002867 0.0 -0.0048435027385538981 0.37728202560699431 0.0 0.0093306566426935578 0.3674805043488949 0.0 -0.0029529590646670545 0.37811789792573042 0.0 -0.080782581915618837 0.36236117409545382 0.0 -0.026723115271444747 -1.0105831004624908 0.0 0.017062659912929601 0.36354254627948557 0.0 -0.0043991314046556707 0.37150084815061041 0.0 0.017672900207616051 0.34931359798682649 0.0 0.037790436920420667 0.38922714639920952 0.0 0.0094699248785725665 0.29015627174481007 0.0 0.0023086071149819309 0.42125459719226033 0.0 -0.030188846908780653 0.38528514242887768 0.0 0.0016965657964720382 0.38604187599821699 0.0 0.11332168993005631 -1.1465148417363993 0.0 0.11604884935317339 -1.0839575848693832 0.0 -0.66005686303501887 0.42260845951833542 0.0 -0.092779010259548031 0.34207803859858488 0.0 -0.00099157625851387099 0.3676401581123937 0.0 0.029432692727078325 -1.132620767511018 0.0 0.080438764045515754 0.3582279016962116 0.0 -0.010355512713263404 0.34327949607018188 0.0 -0.024103767750936374 -1.0447080984827155 0.0 0.0087860198553274399 0.36355472257549548 0.0 0.021632704746500087 -1.2005127604941441 0.0 0.053779094960779233 0.36482265144866632 0.0 -0.20394633270419907 0.34962902800503637 0.0 -0.077624650109600013 0.37140338401191059 0.0 -0.016835913276416314 -1.2892887825254091 0.0 0.001486235683418366 0.37863254574255767 0.0 -0.0053929758044163334 0.36848855960219973 0.0 0.031788882136701835 -0.93794206073918684 0.0 0.025728518351655141 0.32293161998797221 0.0 -0.028396747173358314 0.35756510419361653 0.0 0.019445557002097213 0.35000812727108321 0.0 -0.020241243056516756 0.38318422023115978 0.0 -0.019893573978622486 0.39731471215562419 0.0 0.036949117663540032 0.41089331569290793 0.0 0.0090514763869161685 0.33912386595556471 0.0 -0.010896833696428188 0.36682749457090941 0.0 -0.0048340528594907339 -1.2076191562679939 0.0 0.0098821537922719749 0.3958834323166695 0.0 0.063638522940522857 0.33912394005457613 0.0 -0.072089214740068713 0.32914303823381319 0.0 -0.01998065285059622 0.37990262326816909 0.0 -0.0067755842533880895 0.39128562216101626 0.0 -0.0022714416560482009 -1.1980447235622596 0.0 0.0064979900275540792 0.40679666103637757 0.0 0.06745358556031944 0.34579720429910948 0.0 -0.13899709636152283 0.43290207050738733 0.0 0.0035470616355697746 0.35378037164081472 0.0 -0.013332599512944215 0.38458371476046455 0.0 0.030605495064608024 0.36309881183469694 0.0 -0.0040467920753943093 0.41904987374154434 0.0 -0.10695718126563181 0.33959852496376997 0.0 0.026418409938375825 0.38131339318974478 0.0 -0.020416411731823625 0.37696324353760341 0.0 -0.016603369041633315 0.39577610579017075 0.0 0.097912138432674323 0.38611381831082253 0.0 0.093098324683592443 0.41208779928414213 0.0 -0.11564555765972304 0.40844561411515079 0.0 -0.013236054543043128 0.33945865187924462 0.0 -0.00059002107770850243 0.36628669833449096 0.0 0.017071084042882698 0.38550767776336364 0.0 0.086765754884811863 -1.2997573486629599 0.0 0.01705236286448833 0.43749344469839579 0.0 </DataArray>
<DataArray Name="radii" format="ascii" type="Float32">1.4 1.4 1.4 1.4 1.4 1.4 1.4 1.4 1.4 1.4 1.4 1.4 1.4 1.4 1.4 1.4 1.4 1.4 1.4 1.4 1.4 1.4 1.4 1.4 1.4 1.4 1.4 1.4 1.4 1.4 1.4 1.4 1.4 1.4 1.4 1.4 1.4 1.4 1.4 1.4 1.4 1.4 1.4 1.4 1.4 1.4 1.4 1.4 1.4 1.4 1.4 1.4 1.4 1.4 1.4 1.4 1.4 1.4 1.4 1.4 1.4 1.4 1.4 1.4 1.4 1.4 1.4 1.4 1.4 1.4 1.4 1.4 1.4 1.4 1.4 1.4 1.4 1.4 1.4 1.4 1.4 1.4 1.4 1.4 1.4 1.4 </DataArray>
</PointData>
<CellData/>
</Piece>
</UnstructuredGrid>
</VTKFile>
