<?xml version="1.0" ?>
<VTKFile byte_order="LittleEndian" type="UnstructuredGrid" version="0.1">
<UnstructuredGrid>
<Piece NumberOfCells="0" NumberOfPoints="374">
<Points>
<DataArray NumberOfComponents="3" format="ascii" type="Float32">9.1157930773476465 1.2 2 29.440566496524099 1.2 2 77.064347315027263 2.7849008798044612 2 80.186926661096891 3.2255623249472425 2 88.675634615438923 4.1685083361751047 2 3.0043698763787479 1.2 2 34.373155239770782 2.8070214341138007 2 68.866025405602926 1.2 2 85.785663815816989 1.2 2 86.883706403439689 10.263153851568449 2 5.45528090252437 8.3187642093779868 2 31.034380952572707 8.7031524431202865 2 75.053669455596804 9.2537923542264231 2 79.38519195680891 6.5176704599730231 2 92.132790959675404 4.9570808694719197 2 5.0582789069731486 6.736054503371812 2 34.687658395464794 4.2795370543168936 2 69.591449138989432 1.2 2 81.01535353841227 6.8667863634400135 2 87.751720728983614 1.2 2 5.1390075369455861 1.2 2 28.066497951360194 1.6535830417425221 2 75.273457779197742 3.3658071806768608 2 77.376512946419112 4.7956758124645686 2 88.689727930427679 9.1350150858488774 2 3.4445163928352538 2.3048178629343234 2 37.493649219191326 3.076721555186408 2 71.461203586348361 5.0296712847145448 2 85.51857728367807 3.338418349053808 2 85.803239436666502 9.1124692580163895 2 7.3923111038452927 4.4541389630920634 2 26.891929503663025 8.3330897744814116 2 71.577180416979161 10.165498591596315 2 76.015631610066706 5.5118897836332623 2 94.301395642410569 1.2 2 95.104658369380459 1.2 2 2.277575331322379 6.2481247113583551 2 36.064666566725776 8.0114442962393912 2 73.088096001525471 4.3136881200806103 2 80.729528492153236 2.4006712758471513 2 91.541457543131955 2.6886133575759028 2 11.924438558402239 2.1824789022125386 2 31.293290655036245 2.5412297560095714 2 78.304603021619371 3.0095300058111847 2 79.161131803705999 1.2 2 89.893101438703411 4.2944794770623806 2 1.2 2.9416495274219718 2 11.760622221781979 7.4564612143839684 2 33.984027199889901 1.2 2 68.342583740874389 5.7726548643266176 2 68.655519741662857 3.114245994448325 2 83.677049114686056 2.3428950908866435 2 88.725889742590951 6.3643253635397512 2 8.037803151463061 9.6642976454052167 2 33.630755742663162 6.2495465554644527 2 73.907898682595231 6.6353487553478301 2 77.558863617566203 10.574128806275374 2 92.128492352344907 8.4894361175547122 2 5.9282831855935889 6.0471136316377772 2 32.546197299977607 4.803656954508126 2 73.408824273327483 1.2 2 84.42370487334 4.2664709387986415 2 89.944222460653023 1.2 2 7.5969737837671634 2.4367176448823278 2 26.062324763393033 3.709493061129816 2 29.206346317757934 7.5766429864365756 2 74.232222338162458 1.2 2 80.261500581738602 5.4737851675989555 2 94.84143706881072 8.5319005146565043 2 4.8663220708852908 4.0910008102038695 2 36.535999793876194 2.3608453298720762 2 69.7380482521923 8.924179288342172 2 85.57025283222103 7.2790873872636936 2 84.603142282512266 5.4233779832820028 2 8.3581494815892405 7.7244867587045389 2 25.863666661829363 6.8375234618844258 2 73.63386449530968 7.9302414626892395 2 77.369689807277183 7.2552311016001019 2 94.669846875753464 5.7744060706022813 2 96.074035517590602 4.0244205004197244 2 1.2 7.6707946529367304 2 37.567916060042165 4.8075386740821227 2 72.610391787557518 2.2733638672130883 2 82.684971124637329 2.9966355499154771 2 90.696249852062209 1.2 2 97.344257083872833 4.6123308127165847 2 9.9234472239052067 1.2 2 29.939495233631614 2.4709259169921349 2 76.339340077154077 1.2 2 80.787526833859474 4.25810066998885 2 89.137521439823402 5.2436593846930615 2 1.2 2.190853038850793 2 32.390144343312606 1.2 2 68.081094661478573 2.2187800158156139 2 86.458573020459411 1.2 2 86.692906463601204 7.8813055047707223 2 6.82971527901835 8.1027541583216998 2 11.866823225014848 3.7960903272938138 2 33.871948961332031 9.3525094671464792 2 74.112135331112555 10.940906526706897 2 78.719613676352836 9.2534110424199749 2 93.589585395343548 6.2174429008535848 2 2.7192406962783804 7.7413272817223646 2 33.519596204885254 3.4208242412229763 2 65.865191672208681 1.2 2 70.435898431241327 2.0274196481980096 2 81.197624014781027 8.7944116636733831 2 88.475073384630932 1.2 2 6.7086060632500359 1.2 2 28.725452033974864 3.9050509210165636 2 74.195621340368746 4.1480437572659064 2 79.657518651655565 4.4287899178521206 2 91.097734783980457 10.054166713665252 2 3.6944520542135084 1.2 2 37.169537261484635 1.2 2 70.980815276925654 3.2210584589996007 2 87.46502911554002 3.8002989980271833 2 83.752401351224904 11.656508195641941 2 98.8 1.952893447511963 2 8.9885266518952545 3.61054672087637 2 29.817961038264542 10.110141529662599 2 69.745677829824402 10.546755390162888 2 76.372081180668289 3.6350335771430942 2 92.79815773219741 1.2 2 96.811294328264324 2.307064801064981 2 2.137712358029177 4.6852707843099548 2 37.359702698739135 9.6266307251276917 2 72.490086247387282 5.4750911755770444 2 80.52339161716003 1.2 2 92.794626782185318 4.0245061717355286 2 10.272355122660077 3.3211119686701349 2 31.655677560411991 1.2 2 77.730237984382327 1.2 2 79.558800778027859 2.3288393924046753 2 90.542690260251049 5.3905501924377379 2 1.3285343219494987 1.2 2 11.730318025774926 9.242996932071101 2 35.586673320323143 1.2 2 68.685152310314493 4.7091330615620226 2 70.127208872443163 4.2362645581740352 2 81.912453817948048 1.2 2 87.46526675636764 6.4632111050179253 2 10.046910876554794 10.446000659075253 2 12.682518657253068 1.2 2 32.664515393269816 7.831506189811817 2 76.097571285899406 7.0687695428058319 2 79.135719442626893 11.490154078933605 2 90.560970595470963 6.4925846935254468 2 6.598337586479146 3.7342866601934692 2 31.375275144056669 4.5063285668889703 2 67.194087870972893 2.8461313953122143 2 73.31642816282168 3.2497107292394416 2 84.536389183197016 1.2 2 88.380875033610522 3.0422534271531863 2 7.4450264723493929 1.2 2 27.596498528358264 4.610205224847717 2 30.50284681871597 5.311359130230815 2 39.343479422309059 4.1887604540436696 2 74.903885624493171 1.2 2 83.089493377663828 6.5370238996160488 2 96.728837848609132 8.2157704967819605 2 2.9611623850941644 4.1422276019755531 2 35.411662462840589 3.3502289310648421 2 39.188789262342326 2.3228935507359605 2 69.885039714366329 6.2754651593073891 2 85.514629037381354 4.7819147084659255 2 84.205596612749474 8.2002892337066005 2 8.6838386383089698 5.6684960599430454 2 24.861806361254104 1.2 2 28.181776750900717 6.4577971238617327 2 71.58079231783482 7.0768816914024288 2 78.117475250777844 6.3723908111736352 2 95.591585357275761 3.0687280624773874 2 97.925333540736091 2.6534834879086886 2 1.2 9.8339052551762496 2 25.987097592631471 1.6310388991188842 2 36.186668507293902 5.9708405522803094 2 71.564658565814526 2.3904797864046268 2 82.979501880469755 4.2656155160204419 2 91.396496052987885 1.2 2 96.663567446715106 6.8135099930058276 2 8.2545896287653591 1.2 2 30.964693809529773 1.2 2 77.049699306759791 1.2 2 79.169714409464817 3.3556533768328127 2 89.548145807766275 3.1004611086004634 2 2.4384541827946706 2.7744787045858299 2 35.255233963910257 2.1918473662703297 2 68.104879533291836 1.2 2 85.171743914556643 1.2 2 88.867021393390559 10.7663052365828 2 4.1229090693041197 9.6455508316480838 2 32.187313874073574 10.003759304583273 2 76.343706099590719 9.2330745860431875 2 80.201872905009921 7.7630085777297895 2 93.629982137229035 4.7071396368237242 2 3.4708092387145615 6.0987653901607812 2 35.052302999017364 5.2353991788835259 2 69.339461976426932 2.4991529015555356 2 82.193926565621965 7.2329953056230254 2 87.442235083923535 2.4880869101277421 2 5.5143090392859921 2.1606473809738045 2 27.038145124342073 2.3755761120865322 2 74.325682821979115 2.9285035813647711 2 78.959256733864137 5.4847584269534044 2 90.182061215048478 8.5186730090058482 2 3.3962108047189949 3.2431688353826114 2 38.319534117057039 3.6965781208426596 2 69.756063685479234 5.1464599039207384 2 85.688492143592413 2.4167957592761593 2 84.434459688464372 9.8782067933803042 2 7.5543986087278379 5.5288799300267799 2 14.79369326891694 1.9589784807790231 2 28.48738543050133 8.6395647946325926 2 71.989560491074442 8.6733116968536894 2 74.769003333320939 5.1283375196939112 2 94.23638213819396 2.5091636295544841 2 95.375455873861341 2.0445198918479441 2 3.727674687406608 4.9620552953042623 2 34.394267746380713 7.7827959560564146 2 66.274196878598417 6.1274060874691205 2 71.547479011402075 4.1050420445662601 2 81.959113024137693 2.2902340730511233 2 92.290192706000781 3.0241593558809776 2 11.260421458973868 2.9953935420926365 2 32.499166327534887 2.8534318034214783 2 64.635644414963721 5.0874192321189371 2 77.451660636318138 3.7272004475309357 2 78.456514666621089 1.2 2 90.70089483664205 3.3265237136813006 2 1.2 3.7167092925270886 2 10.528183753452277 7.0618230639674167 2 33.175119240417672 1.2 2 41.647613456327576 5.3780474230977049 2 68.323689030159102 7.0744019453646043 2 68.12699246824738 3.8441630413849359 2 82.59512451634663 1.2 2 89.384672603868921 7.3144783855576314 2 6.0926797606784637 10.204082527346834 2 34.966569453422274 6.5322105933268162 2 74.992289198461137 6.2942476951505588 2 75.933695156265117 11.329028899278963 2 93.412331933900859 9.9297879252520005 2 6.0331423537235347 4.7648808111805216 2 33.602158401438807 4.6604082737760208 2 72.638828765656655 1.2 2 84.625567557067782 2.9489533614875896 2 88.865398984277334 2.2055568862345778 2 8.6606277534567973 2.1875013537513963 2 25.474597742122363 5.2324216520048923 2 30.605117593625746 7.4471776226163344 2 75.277748526615824 2.4021458011909926 2 81.296461564914466 5.7012902407749451 2 93.495595835958341 7.6559521479128003 2 4.7682457329697261 5.1898755491292681 2 36.406528442771204 1.2 2 66.27661693440956 8.0758583337017544 2 70.733630974224397 8.1225875700572949 2 84.286457524230045 6.8392742861093208 2 83.504844161254255 5.3548472491874159 2 9.2719866874628973 6.6659224965176476 2 27.143909117556664 6.5437105278726966 2 73.391937551388267 9.3238139213305615 2 77.338946421817454 8.4942126248645291 2 95.732071596262998 5.3162165554587091 2 94.876708781792644 4.2315429189658467 2 1.2 6.0458689861303538 2 36.417875507037905 4.6344613134623636 2 71.915737207222506 1.2 2 81.502754252731435 3.202575980276837 2 90.416598798617713 2.3196929251994516 2 97.059140118970703 3.3781797871262684 2 9.7219151410482247 2.5953851855932855 2 28.837749777845783 2.7256458630211817 2 42.409647632341063 1.2 2 76.291666740960721 2.2249654928423621 2 81.859277653593537 4.1958407822080783 2 87.771005394832088 4.9461678858974008 2 1.2 1.2 2 33.29384376627663 2.2147724651126595 2 67.323283618892759 1.2 2 86.645970883925656 2.9521008981237999 2 87.824018166460149 8.1133554109224271 2 7.0732634786548649 6.687075065814474 2 11.538359028762953 4.9943454615214904 2 35.51762881767079 9.8228805992873678 2 72.442765235137543 11.820409281464894 2 78.994171875274375 7.8485502112628254 2 92.347154558300531 6.1685577152046802 2 4.0596028837570017 7.4959871597006256 2 22.756790557732742 8.3678631347378492 2 31.842821604749489 3.4899771828710917 2 65.039767954327203 2.5157486836176153 2 70.345493961144186 1.2 2 80.209521568708055 9.8230690572783015 2 89.234772551125104 1.2 2 5.9389730137561987 1.2 2 30.375495961830744 3.2516358361841835 2 73.504470785945045 5.3954157391715238 2 78.471621316966619 4.423395773023179 2 90.513032622633943 11.974359070560968 2 4.4256998206000038 1.2 2 37.938383937922914 1.2 2 72.266279352471585 3.3508141615183158 2 86.422734283607397 4.2276221314360471 2 82.458931732509569 10.052803892242522 2 97.676068457999861 1.2 2 8.0203105509593051 3.4775076927574675 2 27.470045306754876 10.403173201842955 2 70.270205668984332 12.323391160210944 2 75.604686179567324 4.4065726928678925 2 93.517715902292721 1.2 2 96.085439287710173 1.2 2 1.2 4.7537462752743966 2 39.121807453942949 10.599877042077692 2 72.714064521309197 6.9586182747219496 2 79.859300011030854 1.2 2 93.121685189118082 2.4934227101596558 2 10.569738671691663 1.4204053609191636 2 21.443960981544091 1.2 2 30.197869181221357 1.2 2 78.144250439334115 2.147328214335019 2 81.233321851823675 1.2 2 91.223511173731154 4.4210976939909665 2 2.2853383543313091 1.2 2 13.544337749626864 9.7433978091858489 2 34.745109756951535 1.2 2 40.182352534905561 7.0267959733640302 2 67.150566808182347 4.4096861908125513 2 69.956220560715536 3.255983621431076 2 83.252509544886507 1.2 2 86.811741865202933 5.5391164829484802 2 9.8415997865825062 8.5856933503071247 2 13.346841126585458 1.2678646362962183 2 32.462370392022983 6.1706674277419413 2 75.188059570553222 7.7722493483378656 2 81.291266159705543 11.568485869568811 2 91.542277149952284 7.2077658729514686 2 5.4836001395454659 3.1651249146873868 2 29.865977971348073 4.2981280912980973 2 64.442996468491913 1.2 2 66.125980266898409 2.4246026837877386 2 73.77477597152911 2.038792505976263 2 83.903513289319335 1.2 2 87.106884949462227 1.2 2 6.6467657569393035 2.6593855561801525 2 26.60876142434077 4.9498953020558387 2 31.28100429251932 6.4154451413569475 2 39.791895485168901 5.0347550706524853 2 75.619420356893272 1.2 2 82.351511217148243 5.2825436823798206 2 96.830324196154791 10.017912707317873 2 4.4910172597121729 2.9553011739212898 2 15.843240254680481 9.785261977777532 2 36.443968591770627 3.4640403604045455 2 38.15990522959266 2.3744617628573916 2 69.449153452281763 7.3802943304596003 2 85.755685940259156 6.1089969187026432 2 82.793838031505985 8.4567898122322447 2 9.3374534508275211 4.7404193538642119 2 25.053969033271699 2.2679547324421394 2 29.452718652615555 5.9858696882987292 2 71.061414483928644 6.0293481653674661 2 77.034107471198524 5.7289137485887442 2 94.041213312354174 3.4603138019950088 2 98.569439684206557 3.8597341907882141 2 2.557066854976874 9.1740064393691778 2 26.836291511304864 1.2 2 37.218718283925433 6.4712464156770766 2 62.46357603558765 2.7401515906232818 2 71.167480361537486 1.2 2 83.68172999537417 3.3391351796170703 2 92.098926780433743 1.2 2 97.259734268934366 5.6706008906584859 2 </DataArray>
</Points>
<Cells>
<DataArray Name="connectivity" format="ascii" type="Int32">0</DataArray>
<DataArray Name="offsets" format="ascii" type="Int32">0</DataArray>
<DataArray Name="types" format="ascii" type="UInt8">1</DataArray>
</Cells>
<PointData>
<DataArray Name="Points" NumberOfComponents="3" format="ascii" type="Float32">9.1157930773476465 1.2 2 29.440566496524099 1.2 2 77.064347315027263 2.7849008798044612 2 80.186926661096891 3.2255623249472425 2 88.675634615438923 4.1685083361751047 2 3.0043698763787479 1.2 2 34.373155239770782 2.8070214341138007 2 68.866025405602926 1.2 2 85.785663815816989 1.2 2 86.883706403439689 10.263153851568449 2 5.45528090252437 8.3187642093779868 2 31.034380952572707 8.7031524431202865 2 75.053669455596804 9.2537923542264231 2 79.38519195680891 6.5176704599730231 2 92.132790959675404 4.9570808694719197 2 5.0582789069731486 6.736054503371812 2 34.687658395464794 4.2795370543168936 2 69.591449138989432 1.2 2 81.01535353841227 6.8667863634400135 2 87.751720728983614 1.2 2 5.1390075369455861 1.2 2 28.066497951360194 1.6535830417425221 2 75.273457779197742 3.3658071806768608 2 77.376512946419112 4.7956758124645686 2 88.689727930427679 9.1350150858488774 2 3.4445163928352538 2.3048178629343234 2 37.493649219191326 3.076721555186408 2 71.461203586348361 5.0296712847145448 2 85.51857728367807 3.338418349053808 2 85.803239436666502 9.1124692580163895 2 7.3923111038452927 4.4541389630920634 2 26.891929503663025 8.3330897744814116 2 71.577180416979161 10.165498591596315 2 76.015631610066706 5.5118897836332623 2 94.301395642410569 1.2 2 95.104658369380459 1.2 2 2.277575331322379 6.2481247113583551 2 36.064666566725776 8.0114442962393912 2 73.088096001525471 4.3136881200806103 2 80.729528492153236 2.4006712758471513 2 91.541457543131955 2.6886133575759028 2 11.924438558402239 2.1824789022125386 2 31.293290655036245 2.5412297560095714 2 78.304603021619371 3.0095300058111847 2 79.161131803705999 1.2 2 89.893101438703411 4.2944794770623806 2 1.2 2.9416495274219718 2 11.760622221781979 7.4564612143839684 2 33.984027199889901 1.2 2 68.342583740874389 5.7726548643266176 2 68.655519741662857 3.114245994448325 2 83.677049114686056 2.3428950908866435 2 88.725889742590951 6.3643253635397512 2 8.037803151463061 9.6642976454052167 2 33.630755742663162 6.2495465554644527 2 73.907898682595231 6.6353487553478301 2 77.558863617566203 10.574128806275374 2 92.128492352344907 8.4894361175547122 2 5.9282831855935889 6.0471136316377772 2 32.546197299977607 4.803656954508126 2 73.408824273327483 1.2 2 84.42370487334 4.2664709387986415 2 89.944222460653023 1.2 2 7.5969737837671634 2.4367176448823278 2 26.062324763393033 3.709493061129816 2 29.206346317757934 7.5766429864365756 2 74.232222338162458 1.2 2 80.261500581738602 5.4737851675989555 2 94.84143706881072 8.5319005146565043 2 4.8663220708852908 4.0910008102038695 2 36.535999793876194 2.3608453298720762 2 69.7380482521923 8.924179288342172 2 85.57025283222103 7.2790873872636936 2 84.603142282512266 5.4233779832820028 2 8.3581494815892405 7.7244867587045389 2 25.863666661829363 6.8375234618844258 2 73.63386449530968 7.9302414626892395 2 77.369689807277183 7.2552311016001019 2 94.669846875753464 5.7744060706022813 2 96.074035517590602 4.0244205004197244 2 1.2 7.6707946529367304 2 37.567916060042165 4.8075386740821227 2 72.610391787557518 2.2733638672130883 2 82.684971124637329 2.9966355499154771 2 90.696249852062209 1.2 2 97.344257083872833 4.6123308127165847 2 9.9234472239052067 1.2 2 29.939495233631614 2.4709259169921349 2 76.339340077154077 1.2 2 80.787526833859474 4.25810066998885 2 89.137521439823402 5.2436593846930615 2 1.2 2.190853038850793 2 32.390144343312606 1.2 2 68.081094661478573 2.2187800158156139 2 86.458573020459411 1.2 2 86.692906463601204 7.8813055047707223 2 6.82971527901835 8.1027541583216998 2 11.866823225014848 3.7960903272938138 2 33.871948961332031 9.3525094671464792 2 74.112135331112555 10.940906526706897 2 78.719613676352836 9.2534110424199749 2 93.589585395343548 6.2174429008535848 2 2.7192406962783804 7.7413272817223646 2 33.519596204885254 3.4208242412229763 2 65.865191672208681 1.2 2 70.435898431241327 2.0274196481980096 2 81.197624014781027 8.7944116636733831 2 88.475073384630932 1.2 2 6.7086060632500359 1.2 2 28.725452033974864 3.9050509210165636 2 74.195621340368746 4.1480437572659064 2 79.657518651655565 4.4287899178521206 2 91.097734783980457 10.054166713665252 2 3.6944520542135084 1.2 2 37.169537261484635 1.2 2 70.980815276925654 3.2210584589996007 2 87.46502911554002 3.8002989980271833 2 83.752401351224904 11.656508195641941 2 98.8 1.952893447511963 2 8.9885266518952545 3.61054672087637 2 29.817961038264542 10.110141529662599 2 69.745677829824402 10.546755390162888 2 76.372081180668289 3.6350335771430942 2 92.79815773219741 1.2 2 96.811294328264324 2.307064801064981 2 2.137712358029177 4.6852707843099548 2 37.359702698739135 9.6266307251276917 2 72.490086247387282 5.4750911755770444 2 80.52339161716003 1.2 2 92.794626782185318 4.0245061717355286 2 10.272355122660077 3.3211119686701349 2 31.655677560411991 1.2 2 77.730237984382327 1.2 2 79.558800778027859 2.3288393924046753 2 90.542690260251049 5.3905501924377379 2 1.3285343219494987 1.2 2 11.730318025774926 9.242996932071101 2 35.586673320323143 1.2 2 68.685152310314493 4.7091330615620226 2 70.127208872443163 4.2362645581740352 2 81.912453817948048 1.2 2 87.46526675636764 6.4632111050179253 2 10.046910876554794 10.446000659075253 2 12.682518657253068 1.2 2 32.664515393269816 7.831506189811817 2 76.097571285899406 7.0687695428058319 2 79.135719442626893 11.490154078933605 2 90.560970595470963 6.4925846935254468 2 6.598337586479146 3.7342866601934692 2 31.375275144056669 4.5063285668889703 2 67.194087870972893 2.8461313953122143 2 73.31642816282168 3.2497107292394416 2 84.536389183197016 1.2 2 88.380875033610522 3.0422534271531863 2 7.4450264723493929 1.2 2 27.596498528358264 4.610205224847717 2 30.50284681871597 5.311359130230815 2 39.343479422309059 4.1887604540436696 2 74.903885624493171 1.2 2 83.089493377663828 6.5370238996160488 2 96.728837848609132 8.2157704967819605 2 2.9611623850941644 4.1422276019755531 2 35.411662462840589 3.3502289310648421 2 39.188789262342326 2.3228935507359605 2 69.885039714366329 6.2754651593073891 2 85.514629037381354 4.7819147084659255 2 84.205596612749474 8.2002892337066005 2 8.6838386383089698 5.6684960599430454 2 24.861806361254104 1.2 2 28.181776750900717 6.4577971238617327 2 71.58079231783482 7.0768816914024288 2 78.117475250777844 6.3723908111736352 2 95.591585357275761 3.0687280624773874 2 97.925333540736091 2.6534834879086886 2 1.2 9.8339052551762496 2 25.987097592631471 1.6310388991188842 2 36.186668507293902 5.9708405522803094 2 71.564658565814526 2.3904797864046268 2 82.979501880469755 4.2656155160204419 2 91.396496052987885 1.2 2 96.663567446715106 6.8135099930058276 2 8.2545896287653591 1.2 2 30.964693809529773 1.2 2 77.049699306759791 1.2 2 79.169714409464817 3.3556533768328127 2 89.548145807766275 3.1004611086004634 2 2.4384541827946706 2.7744787045858299 2 35.255233963910257 2.1918473662703297 2 68.104879533291836 1.2 2 85.171743914556643 1.2 2 88.867021393390559 10.7663052365828 2 4.1229090693041197 9.6455508316480838 2 32.187313874073574 10.003759304583273 2 76.343706099590719 9.2330745860431875 2 80.201872905009921 7.7630085777297895 2 93.629982137229035 4.7071396368237242 2 3.4708092387145615 6.0987653901607812 2 35.052302999017364 5.2353991788835259 2 69.339461976426932 2.4991529015555356 2 82.193926565621965 7.2329953056230254 2 87.442235083923535 2.4880869101277421 2 5.5143090392859921 2.1606473809738045 2 27.038145124342073 2.3755761120865322 2 74.325682821979115 2.9285035813647711 2 78.959256733864137 5.4847584269534044 2 90.182061215048478 8.5186730090058482 2 3.3962108047189949 3.2431688353826114 2 38.319534117057039 3.6965781208426596 2 69.756063685479234 5.1464599039207384 2 85.688492143592413 2.4167957592761593 2 84.434459688464372 9.8782067933803042 2 7.5543986087278379 5.5288799300267799 2 14.79369326891694 1.9589784807790231 2 28.48738543050133 8.6395647946325926 2 71.989560491074442 8.6733116968536894 2 74.769003333320939 5.1283375196939112 2 94.23638213819396 2.5091636295544841 2 95.375455873861341 2.0445198918479441 2 3.727674687406608 4.9620552953042623 2 34.394267746380713 7.7827959560564146 2 66.274196878598417 6.1274060874691205 2 71.547479011402075 4.1050420445662601 2 81.959113024137693 2.2902340730511233 2 92.290192706000781 3.0241593558809776 2 11.260421458973868 2.9953935420926365 2 32.499166327534887 2.8534318034214783 2 64.635644414963721 5.0874192321189371 2 77.451660636318138 3.7272004475309357 2 78.456514666621089 1.2 2 90.70089483664205 3.3265237136813006 2 1.2 3.7167092925270886 2 10.528183753452277 7.0618230639674167 2 33.175119240417672 1.2 2 41.647613456327576 5.3780474230977049 2 68.323689030159102 7.0744019453646043 2 68.12699246824738 3.8441630413849359 2 82.59512451634663 1.2 2 89.384672603868921 7.3144783855576314 2 6.0926797606784637 10.204082527346834 2 34.966569453422274 6.5322105933268162 2 74.992289198461137 6.2942476951505588 2 75.933695156265117 11.329028899278963 2 93.412331933900859 9.9297879252520005 2 6.0331423537235347 4.7648808111805216 2 33.602158401438807 4.6604082737760208 2 72.638828765656655 1.2 2 84.625567557067782 2.9489533614875896 2 88.865398984277334 2.2055568862345778 2 8.6606277534567973 2.1875013537513963 2 25.474597742122363 5.2324216520048923 2 30.605117593625746 7.4471776226163344 2 75.277748526615824 2.4021458011909926 2 81.296461564914466 5.7012902407749451 2 93.495595835958341 7.6559521479128003 2 4.7682457329697261 5.1898755491292681 2 36.406528442771204 1.2 2 66.27661693440956 8.0758583337017544 2 70.733630974224397 8.1225875700572949 2 84.286457524230045 6.8392742861093208 2 83.504844161254255 5.3548472491874159 2 9.2719866874628973 6.6659224965176476 2 27.143909117556664 6.5437105278726966 2 73.391937551388267 9.3238139213305615 2 77.338946421817454 8.4942126248645291 2 95.732071596262998 5.3162165554587091 2 94.876708781792644 4.2315429189658467 2 1.2 6.0458689861303538 2 36.417875507037905 4.6344613134623636 2 71.915737207222506 1.2 2 81.502754252731435 3.202575980276837 2 90.416598798617713 2.3196929251994516 2 97.059140118970703 3.3781797871262684 2 9.7219151410482247 2.5953851855932855 2 28.837749777845783 2.7256458630211817 2 42.409647632341063 1.2 2 76.291666740960721 2.2249654928423621 2 81.859277653593537 4.1958407822080783 2 87.771005394832088 4.9461678858974008 2 1.2 1.2 2 33.29384376627663 2.2147724651126595 2 67.323283618892759 1.2 2 86.645970883925656 2.9521008981237999 2 87.824018166460149 8.1133554109224271 2 7.0732634786548649 6.687075065814474 2 11.538359028762953 4.9943454615214904 2 35.51762881767079 9.8228805992873678 2 72.442765235137543 11.820409281464894 2 78.994171875274375 7.8485502112628254 2 92.347154558300531 6.1685577152046802 2 4.0596028837570017 7.4959871597006256 2 22.756790557732742 8.3678631347378492 2 31.842821604749489 3.4899771828710917 2 65.039767954327203 2.5157486836176153 2 70.345493961144186 1.2 2 80.209521568708055 9.8230690572783015 2 89.234772551125104 1.2 2 5.9389730137561987 1.2 2 30.375495961830744 3.2516358361841835 2 73.504470785945045 5.3954157391715238 2 78.471621316966619 4.423395773023179 2 90.513032622633943 11.974359070560968 2 4.4256998206000038 1.2 2 37.938383937922914 1.2 2 72.266279352471585 3.3508141615183158 2 86.422734283607397 4.2276221314360471 2 82.458931732509569 10.052803892242522 2 97.676068457999861 1.2 2 8.0203105509593051 3.4775076927574675 2 27.470045306754876 10.403173201842955 2 70.270205668984332 12.323391160210944 2 75.604686179567324 4.4065726928678925 2 93.517715902292721 1.2 2 96.085439287710173 1.2 2 1.2 4.7537462752743966 2 39.121807453942949 10.599877042077692 2 72.714064521309197 6.9586182747219496 2 79.859300011030854 1.2 2 93.121685189118082 2.4934227101596558 2 10.569738671691663 1.4204053609191636 2 21.443960981544091 1.2 2 30.197869181221357 1.2 2 78.144250439334115 2.147328214335019 2 81.233321851823675 1.2 2 91.223511173731154 4.4210976939909665 2 2.2853383543313091 1.2 2 13.544337749626864 9.7433978091858489 2 34.745109756951535 1.2 2 40.182352534905561 7.0267959733640302 2 67.150566808182347 4.4096861908125513 2 69.956220560715536 3.255983621431076 2 83.252509544886507 1.2 2 86.811741865202933 5.5391164829484802 2 9.8415997865825062 8.5856933503071247 2 13.346841126585458 1.2678646362962183 2 32.462370392022983 6.1706674277419413 2 75.188059570553222 7.7722493483378656 2 81.291266159705543 11.568485869568811 2 91.542277149952284 7.2077658729514686 2 5.4836001395454659 3.1651249146873868 2 29.865977971348073 4.2981280912980973 2 64.442996468491913 1.2 2 66.125980266898409 2.4246026837877386 2 73.77477597152911 2.038792505976263 2 83.903513289319335 1.2 2 87.106884949462227 1.2 2 6.6467657569393035 2.6593855561801525 2 26.60876142434077 4.9498953020558387 2 31.28100429251932 6.4154451413569475 2 39.791895485168901 5.0347550706524853 2 75.619420356893272 1.2 2 82.351511217148243 5.2825436823798206 2 96.830324196154791 10.017912707317873 2 4.4910172597121729 2.9553011739212898 2 15.843240254680481 9.785261977777532 2 36.443968591770627 3.4640403604045455 2 38.15990522959266 2.3744617628573916 2 69.449153452281763 7.3802943304596003 2 85.755685940259156 6.1089969187026432 2 82.793838031505985 8.4567898122322447 2 9.3374534508275211 4.7404193538642119 2 25.053969033271699 2.2679547324421394 2 29.452718652615555 5.9858696882987292 2 71.061414483928644 6.0293481653674661 2 77.034107471198524 5.7289137485887442 2 94.041213312354174 3.4603138019950088 2 98.569439684206557 3.8597341907882141 2 2.557066854976874 9.1740064393691778 2 26.836291511304864 1.2 2 37.218718283925433 6.4712464156770766 2 62.46357603558765 2.7401515906232818 2 71.167480361537486 1.2 2 83.68172999537417 3.3391351796170703 2 92.098926780433743 1.2 2 97.259734268934366 5.6706008906584859 2 </DataArray>