<?xml version="1.0" ?>
<VTKFile byte_order="LittleEndian" type="UnstructuredGrid" version="0.1">
<UnstructuredGrid>
<Piece NumberOfCells="0" NumberOfPoints="86">
<Points>
<DataArray NumberOfComponents="3" format="ascii" type="Float32">8.0645339429711136 1 2 31.38906966134973 2.03459376183286 2 77.162054168014322 1 2 79.392991285539182 2.886876844120029 2 87.206558114048306 4.4772086627092822 2 1 1 2 33.559060241976795 2.6918293579603163 2 69.410773385929332 1 2 84.73153464399843 1 2 85.977405858333213 7.437511004308992 2 6.6674588866767142 6.304499611063421 2 31.389415193548544 7.3377175416227116 2 75.802797345432012 7.4401525463350264 2 78.958337361846688 6.4155491356718759 2 91.000569367131732 4.050048669204446 2 4.0762040885473985 4.4484555270315882 2 34.111515633524021 4.5387970562651265 2 71.411613836482516 1 2 81.899475300725626 5.6618527986163238 2 86.676826649967651 1 2 6.0524625928057176 1 2 30.110212907589823 3.3109368238092207 2 74.349801024534059 2.7192755355607861 2 78.37371329039452 4.4899252144228843 2 89.534906488276647 7.6020413210166362 2 4.0789248119473074 1 2 37.269319708247401 2.9828048206906574 2 71.401067504581249 4.3841510003134312 2 85.169690365506099 3.0699915520270022 2 83.219952168174402 7.3512832028093031 2 8.0277242257674786 4.3726796578365237 2 29.458012901152472 6.777193190612091 2 71.588785149966554 7.7769108062276153 2 75.857054036605135 3.9577122751997749 2 90.935848221779679 1 2 93.42953239244089 1 2 2.015753075326316 4.1046568992705543 2 36.322579377253973 6.8714949619045118 2 73.364201288034721 4.4142929284824088 2 81.041220129497319 1 2 89.776354007135822 2.5931782104794672 2 8.9589167372597238 2.7400989080464857 2 32.888954799024361 1 2 77.46812492833935 2.8522596812088148 2 79.08875310235922 1 2 89.201926685118053 4.4026886149959727 2 2.5451709958015702 2.212271640175322 2 10.362881635857319 7.5659893882442839 2 34.728767744899727 1 2 68.678350498659142 5.492051663517997 2 70.476080707697477 2.6765022827915619 2 82.8683980048785 1.6348086401269639 2 87.856508577530136 6.487768879950103 2 8.292949185224197 8.1420794380082615 2 32.565055975442583 5.7846566538109965 2 74.943307587941419 5.6648344248551874 2 77.929921818331692 8.1028759751836255 2 90.47377276940145 5.8109134405857858 2 6.0616624759391646 4.4059624178202892 2 32.036096718316372 3.8731434208650444 2 73.324924277404847 1 2 83.227068078149941 3.5551626016567934 2 87.730277081243713 2.6324800091178391 2 7.0572631725082449 2.7065739572660013 2 26.443880995760466 4.6377576903725339 2 30.693672728280717 5.227166761987986 2 75.273366878700728 1 2 80.278654674556577 4.5987518925644117 2 92.003928617322856 7.1345939571595913 2 5.0342513908429343 2.7158611477648615 2 35.377860622037701 3.0134690579984875 2 70.509239227802951 6.1309360144331571 2 85.698759928037887 5.4890934729968439 2 83.792642918450909 5.4619050581343158 2 8.7232085120151517 6.2332860428685484 2 27.590189797419498 6.2739043788740227 2 73.221281106245172 6.67616580887029 2 76.845981167148352 5.8082958334119938 2 92.236369531088684 2.4448903088671026 2 94.096433322782318 2.8097548231747149 2 2.372215522312195 6.0588828510009662 2 35.995350007867621 4.8955722076754773 2 72.411258069964845 2.7109097882855355 2 81.410226556334578 2.9341568719416009 2 88.672761354395263 1 2 95.694268646416688 5.2690286378475868 2 </DataArray>
</Points>
<Cells>
<DataArray Name="connectivity" format="ascii" type="Int32">0</DataArray>
<DataArray Name="offsets" format="ascii" type="Int32">0</DataArray>
<DataArray Name="types" format="ascii" type="UInt8">1</DataArray>
</Cells>
<PointData>
<DataArray Name="Points" NumberOfComponents="3" format="ascii" type="Float32">8.0645339429711136 1 2 31.38906966134973 2.03459376183286 2 77.162054168014322 1 2 79.392991285539182 2.886876844120029 2 87.206558114048306 4.4772086627092822 2 1 1 2 33.559060241976795 2.6918293579603163 2 69.410773385929332 1 2 84.73153464399843 1 2 85.977405858333213 7.437511004308992 2 6.6674588866767142 6.304499611063421 2 31.389415193548544 7.3377175416227116 2 75.802797345432012 7.4401525463350264 2 78.958337361846688 6.4155491356718759 2 91.000569367131732 4.050048669204446 2 4.0762040885473985 4.4484555270315882 2 34.111515633524021 4.5387970562651265 2 71.411613836482516 1 2 81.899475300725626 5.6618527986163238 2 86.676826649967651 1 2 6.0524625928057176 1 2 30.110212907589823 3.3109368238092207 2 74.349801024534059 2.7192755355607861 2 78.37371329039452 4.4899252144228843 2 89.534906488276647 7.6020413210166362 2 4.0789248119473074 1 2 37.269319708247401 2.9828048206906574 2 71.401067504581249 4.3841510003134312 2 85.169690365506099 3.0699915520270022 2 83.219952168174402 7.3512832028093031 2 8.0277242257674786 4.3726796578365237 2 29.458012901152472 6.777193190612091 2 71.588785149966554 7.7769108062276153 2 75.857054036605135 3.9577122751997749 2 90.935848221779679 1 2 93.42953239244089 1 2 2.015753075326316 4.1046568992705543 2 36.322579377253973 6.8714949619045118 2 73.364201288034721 4.4142929284824088 2 81.041220129497319 1 2 89.776354007135822 2.5931782104794672 2 8.9589167372597238 2.7400989080464857 2 32.888954799024361 1 2 77.46812492833935 2.8522596812088148 2 79.08875310235922 1 2 89.201926685118053 4.4026886149959727 2 2.5451709958015702 2.212271640175322 2 10.362881635857319 7.5659893882442839 2 34.728767744899727 1 2 68.678350498659142 5.492051663517997 2 70.476080707697477 2.6765022827915619 2 82.8683980048785 1.6348086401269639 2 87.856508577530136 6.487768879950103 2 8.292949185224197 8.1420794380082615 2 32.565055975442583 5.7846566538109965 2 74.943307587941419 5.6648344248551874 2 77.929921818331692 8.1028759751836255 2 90.47377276940145 5.8109134405857858 2 6.0616624759391646 4.4059624178202892 2 32.036096718316372 3.8731434208650444 2 73.324924277404847 1 2 83.227068078149941 3.5551626016567934 2 87.730277081243713 2.6324800091178391 2 7.0572631725082449 2.7065739572660013 2 26.443880995760466 4.6377576903725339 2 30.693672728280717 5.227166761987986 2 75.273366878700728 1 2 80.278654674556577 4.5987518925644117 2 92.003928617322856 7.1345939571595913 2 5.0342513908429343 2.7158611477648615 2 35.377860622037701 3.0134690579984875 2 70.509239227802951 6.1309360144331571 2 85.698759928037887 5.4890934729968439 2 83.792642918450909 5.4619050581343158 2 8.7232085120151517 6.2332860428685484 2 27.590189797419498 6.2739043788740227 2 73.221281106245172 6.67616580887029 2 76.845981167148352 5.8082958334119938 2 92.236369531088684 2.4448903088671026 2 94.096433322782318 2.8097548231747149 2 2.372215522312195 6.0588828510009662 2 35.995350007867621 4.8955722076754773 2 72.411258069964845 2.7109097882855355 2 81.410226556334578 2.9341568719416009 2 88.672761354395263 1 2 95.694268646416688 5.2690286378475868 2 </DataArray>
<DataArray Name="forces" NumberOfComponents="3" format="ascii" type="Float32">-0.0020710028453843083 -0.055981975574946885 0.0 -0.058680125133628011 0.07114747433808645 0.0 -0.0041805823303610046 -0.1439522634376095 0.0 -0.056229568949419675 0.064514991981352035 0.0 -0.079029388776403489 0.062898851380182016 0.0 -0.029217210015321939 -0.022868466801363219 0.0 0.008484200713537865 0.032452599604031448 0.0 -0.028955844975530089 -0.042171698762174026 0.0 0.034234357902944143 -0.024293453566342677 0.0 0.0063752553008474674 0.042875667321065208 0.0 0.0051474899732340705 0.016400707053663505 0.0 0.010201726423861898 0.017177162989485149 0.0 0.0 0.0 0.0 0.02167047435345603 0.052222488261712115 0.0 -0.15741647083587884 0.11689452255459166 0.0 -0.019653098576075487 0.0030982172513438992 0.0 0.036573142864333601 0.003898289351122795 0.0 0.045588910814781988 -0.11282335814911915 0.0 0.0011724295285665681 0.06050168566429507 0.0 0.0063272879186345096 -0.046898055024439424 0.0 -0.0094433940175806391 -0.075138212719025016 0.0 0.064825940531335335 -0.027667683913964888 0.0 -0.0029322242248770031 0.046898946877197971 0.0 0.050133207616260986 -0.073527264395213843 0.0 -0.03180281383127645 0.058302450500219122 0.0 0.0038571782748874836 -0.059693239209441709 0.0 0.035775274535682106 -0.0052574141207576809 0.0 0.0095518430842772735 0.011125111876927548 0.0 0.023129344671090669 -0.0060834782212197593 0.0 -0.0029290210767900478 0.0094847408414323649 0.0 -0.026111029859872504 -0.030471979103352476 0.0 -0.04620650800837655 0.040472382537430324 0.0 0.00783634831915778 0.036883895339104737 0.0 -0.012574162256836736 0.039729451412247242 0.0 0.0040018403156884541 -0.10170139492792615 0.0 -0.034603848539206478 -0.11164885327060023 0.0 -0.011134111776885872 0.014367965922549925 0.0 0.0022795349697150632 0.014670193320006669 0.0 -0.019284845486501868 -0.01298472471231593 0.0 0.010950685243868694 -0.04656399610324477 0.0 0.0095278810620231386 0.10135086769549986 0.0 -0.095507330871712315 0.056019883580869678 0.0 0.027167276410234281 -0.30881460353206425 0.0 0.046397769910634233 0.046900555840557349 0.0 -0.004192182057738858 -0.11027857725092165 0.0 0.13557827862371419 0.020107022899366691 0.0 -0.00084024320157447853 0.022996456248436735 0.0 -0.0027031974446671716 0.022528685638280536 0.0 -0.059488441193813912 0.0 0.0 0.030557944960353099 0.010219052430636828 0.0 0.0077826371357115204 0.046539752268140958 0.0 -0.030638671444226377 0.033903131318014097 0.0 0.0 0.0 0.0 -0.0040863344363804401 0.018844800780009874 0.0 -0.044278576226673388 0.048420441586766803 0.0 0.061645429806138345 0.028780533638583433 0.0 -0.0029478678074263934 0.0050029358645120505 0.0 -0.011973138333535367 -0.08532683663799201 0.0 -0.013307109145737475 0.0060997513486522985 0.0 -0.025800517870288989 0.047429552582064313 0.0 -0.02156649928653858 -0.070566725776769423 0.0 -0.02523413092157907 -0.032893756980713597 0.0 0.008241517754834754 0.015561151768792997 0.0 0.05462007905138988 0.072896943780821302 0.0 0.0020679249319517576 0.0014873388457527122 0.0 0.042570095675307701 0.035252545381058292 0.0 0.027667609591784943 -0.06504975103852835 0.0 -0.032322477381376828 0.010571134778599337 0.0 0.04134182650248984 0.034435686253628348 0.0 -0.023795672114672921 0.030752548924569242 0.0 -0.037461324187952297 0.018843144214421674 0.0 0.0010738350464018637 0.03481208488529338 0.0 0.020373918826265658 0.022874416403472465 0.0 -0.02518055410029385 0.028027864035366452 0.0 0.012035310772806566 0.060154634985401065 0.0 0.052123148123349589 0.019956452009497683 0.0 -0.034936253861027319 0.02090389526547232 0.0 -0.078902882900158594 0.069003782869693331 0.0 0.078709621193323684 -0.038615352011461219 0.0 -0.076849737881691901 0.041702998260061505 0.0 0.0028161684783545894 0.01583556998653966 0.0 -0.032107436641730949 -0.0072733880735741212 0.0 0.017557636318984528 0.041380348417765694 0.0 0.069308831033735072 0.012312927482065517 0.0 -0.012180991640086965 -0.18465747952605943 0.0 0.0063895982882069321 0.014759267470633441 0.0 </DataArray>
<DataArray Name="radii" format="ascii" type="Float32">1 1 1 1 1 1 1 1 1 1 1 1 1 1 1 1 1 1 1 1 1 1 1 1 1 1 1 1 1 1 1 1 1 1 1 1 1 1 1 1 1 1 1 1 1 1 1 1 1 1 1 1 1 1 1 1 1 1 1 1 1 1 1 1 1 1 1 1 1 1 1 1 1 1 1 1 1 1 1 1 1 1 1 1 1 1 </DataArray>
</PointData>
<CellData/>
</Piece>
</UnstructuredGrid>
</VTKFile>
