<?xml version="1.0" ?>
<VTKFile byte_order="LittleEndian" type="UnstructuredGrid" version="0.1">
<UnstructuredGrid>
<Piece NumberOfCells="0" NumberOfPoints="41">
<Points>
<DataArray NumberOfComponents="3" format="ascii" type="Float32">8.8416964466088039 1.5999999999999999 2 32.127410737255715 1.5999999999999999 2 76.504675133477832 1.5999999999999999 2 78.81825254313911 1.5999999999999999 2 87.958025048999033 4.2313713216955025 2 1.5999999999999999 1.5999999999999999 2 34.478552145771097 1.5999999999999999 2 69.456538563516219 1.5999999999999999 2 83.846186680148193 1.5999999999999999 2 86.618893908970492 6.9210983680496989 2 7.2915759210056379 6.8965544972842538 2 31.89571675771829 6.6932238149295804 2 75.16040670874682 6.7886579872895512 2 78.28315480209443 6.8672647487854928 2 90.798858910823597 4.1858329930384617 2 5.3763282287884628 4.3710116126415475 2 33.695572813004183 4.3222864930767759 2 71.88727269745722 1.5999999999999999 2 82.342678795813569 4.1778539783557633 2 86.442457502640963 1.5999999999999999 2 6.4512762258737233 1.5999999999999999 2 30.794437828768405 3.8272793978131827 2 74.246748182451796 1.5999999999999999 2 79.614034842552044 4.2338487669807581 2 90.08386328897987 7.008229507389979 2 3.9996635248279739 1.5999999999999999 2 36.454305551086442 3.3739097484858513 2 70.774098604766095 4.2338498332740233 2 85.126652824779782 4.2428274569133393 2 83.461573039654468 6.8963985641859473 2 8.4154577751306867 4.2147880744670667 2 28.809486278581534 6.130422587630596 2 72.042232491093642 6.8785016529481053 2 76.681813397966209 4.2081958256091019 2 91.584385060864619 1.5999999999999999 2 94.038287042471296 1.5999999999999999 2 2.323262137239722 4.3867877190629718 2 36.109442118522495 6.3100598950879014 2 73.646052113353733 4.2012040905583659 2 81.27175783400223 1.5999999999999999 2 89.039266707758699 1.5999999999999999 2 </DataArray>
</Points>
<Cells>
<DataArray Name="connectivity" format="ascii" type="Int32">0</DataArray>
<DataArray Name="offsets" format="ascii" type="Int32">0</DataArray>
<DataArray Name="types" format="ascii" type="UInt8">1</DataArray>
</Cells>
<PointData>
<DataArray Name="Points" NumberOfComponents="3" format="ascii" type="Float32">8.8416964466088039 1.5999999999999999 2 32.127410737255715 1.5999999999999999 2 76.504675133477832 1.5999999999999999 2 78.81825254313911 1.5999999999999999 2 87.958025048999033 4.2313713216955025 2 1.5999999999999999 1.5999999999999999 2 34.478552145771097 1.5999999999999999 2 69.456538563516219 1.5999999999999999 2 83.846186680148193 1.5999999999999999 2 86.618893908970492 6.9210983680496989 2 7.2915759210056379 6.8965544972842538 2 31.89571675771829 6.6932238149295804 2 75.16040670874682 6.7886579872895512 2 78.28315480209443 6.8672647487854928 2 90.798858910823597 4.1858329930384617 2 5.3763282287884628 4.3710116126415475 2 33.695572813004183 4.3222864930767759 2 71.88727269745722 1.5999999999999999 2 82.342678795813569 4.1778539783557633 2 86.442457502640963 1.5999999999999999 2 6.4512762258737233 1.5999999999999999 2 30.794437828768405 3.8272793978131827 2 74.246748182451796 1.5999999999999999 2 79.614034842552044 4.2338487669807581 2 90.08386328897987 7.008229507389979 2 3.9996635248279739 1.5999999999999999 2 36.454305551086442 3.3739097484858513 2 70.774098604766095 4.2338498332740233 2 85.126652824779782 4.2428274569133393 2 83.461573039654468 6.8963985641859473 2 8.4154577751306867 4.2147880744670667 2 28.809486278581534 6.130422587630596 2 72.042232491093642 6.8785016529481053 2 76.681813397966209 4.2081958256091019 2 91.584385060864619 1.5999999999999999 2 94.038287042471296 1.5999999999999999 2 2.323262137239722 4.3867877190629718 2 36.109442118522495 6.3100598950879014 2 73.646052113353733 4.2012040905583659 2 81.27175783400223 1.5999999999999999 2 89.039266707758699 1.5999999999999999 2 </DataArray>
<DataArray Name="forces" NumberOfComponents="3" format="ascii" type="Float32">0.029936588530234703 -0.41632773479304086 0.0 -0.009502712925058332 -0.47105391453793627 0.0 0.015342410584227986 -0.58817440141663735 0.0 0.0093230716851195883 -0.42683985637278687 0.0 0.043485567862947855 0.29916530722812412 0.0 -0.88273770851481614 -0.30877979463217753 0.0 -0.023426646382641247 -0.54149967632295803 0.0 0.026912734215805312 -0.65030315755398016 0.0 0.015017792477232783 -0.42415157137004555 0.0 0.020430613741359981 0.29271333202769184 0.0 -0.097110932969184077 0.29473417372595934 0.0 -0.027672499078794321 0.31099161958558308 0.0 0.002239531406878062 0.35006651332293837 0.0 0.014086494030904485 0.30682824904570538 0.0 0.069629655517878378 0.30403887555684145 0.0 -0.063981848258125723 0.28968483451043092 0.0 -0.0085454344316477707 0.31512596366705176 0.0 0.02797175639525773 -0.36289772017814653 0.0 0.0035104574684235446 0.30376463991528069 0.0 0.028872908804434605 -0.36398820871563242 0.0 0.023216466742312591 -0.21600363940368411 0.0 -0.014449270384036234 0.30899055530147868 0.0 0.01710569138002857 -0.51990944181402643 0.0 -0.0093780348049466514 0.29170180243114668 0.0 -0.069039750726036409 0.28223177406142913 0.0 0.0057390969770400035 -0.088282926460396205 0.0 -0.0092719821198570772 0.2912672789005013 0.0 0.034370800331769646 0.29124814940188454 0.0 0.020923192097288566 0.29577319667838359 0.0 0.020295606490401213 0.29779791069993372 0.0 -0.067420177819619703 0.28625245497181623 0.0 -0.027941759200976218 0.32208483386496584 0.0 -0.0065172108931345618 0.31149498287640154 0.0 -0.011236873129765346 0.32576052921293824 0.0 0.046748653239470528 -0.49136792183527583 0.0 0.024897189757285054 -0.50575183370600141 0.0 -0.065795296268381334 0.30937848731467904 0.0 0.027684187692164675 0.2896392355699543 0.0 0.016807352067477105 0.32126708827886874 0.0 0.010371087228645388 -0.4518777931742774 0.0 0.042458015286145678 -0.39032292507400423 0.0 </DataArray>
<DataArray Name="radii" format="ascii" type="Float32">1.5999999999999999 1.5999999999999999 1.5999999999999999 1.5999999999999999 1.5999999999999999 1.5999999999999999 1.5999999999999999 1.5999999999999999 1.5999999999999999 1.5999999999999999 1.5999999999999999 1.5999999999999999 1.5999999999999999 1.5999999999999999 1.5999999999999999 1.5999999999999999 1.5999999999999999 1.5999999999999999 1.5999999999999999 1.5999999999999999 1.5999999999999999 1.5999999999999999 1.5999999999999999 1.5999999999999999 1.5999999999999999 1.5999999999999999 1.5999999999999999 1.5999999999999999 1.5999999999999999 1.5999999999999999 1.5999999999999999 1.5999999999999999 1.5999999999999999 1.5999999999999999 1.5999999999999999 1.5999999999999999 1.5999999999999999 1.5999999999999999 1.5999999999999999 1.5999999999999999 1.5999999999999999 </DataArray>
</PointData>
<CellData/>
</Piece>
</UnstructuredGrid>
</VTKFile>
