<?xml version="1.0" ?>
<VTKFile byte_order="LittleEndian" type="UnstructuredGrid" version="0.1">
<UnstructuredGrid>
<Piece NumberOfCells="0" NumberOfPoints="83">
<Points>
<DataArray NumberOfComponents="3" format="ascii" type="Float32">23.312801173416254 1.4 2 44.186898294476549 1.4 2 52.70505522122631 4.8039784799415548 2 60.571258174314799 4.4425443996354446 2 17.980318158166522 7.0564089889190944 2 43.141001054413316 3.2181422829925594 2 44.624085866376184 8.0293849405822844 2 53.478741201941027 3.0789156263513391 2 63.250503747193235 7.2889669301520428 2 12.942248042969966 3.2777597922477253 2 16.49200940114455 5.0566348658137441 2 46.996675880551912 3.3629268945067157 2 58.057700963030278 7.2469022742802611 2 57.399992456449212 1.4 2 15.449231349419263 7.2825353723546407 2 22.283649557432895 8.8527116969112747 2 47.02858793047865 7.7065256028547875 2 53.955258630075591 9.8998631548773819 2 63.364278756258543 1.4 2 65.275796941713892 1.4 2 20.897343260117257 1.4 2 42.13917721839114 1.4 2 53.762662540440921 1.4 2 61.30117519090691 1.4 2 14.107070950338265 5.2046925273034255 2 19.567144638362635 9.1856175655085792 2 45.055117689395203 3.4715425165307061 2 49.009913771186753 3.1106129901242028 2 59.186872444469266 9.2887179745832675 2 65.653029775153811 7.142442050733532 2 98.6 3.3211630243221553 2 17.498659034002007 3.0794459207870557 2 48.136172921861039 5.3166097568536648 2 56.56194641810567 5.4254265509168773 2 58.708805534654118 5.1332024200984412 2 16.344205544884897 1.4 2 21.272281977527374 4.606261666544734 2 40.197357572073535 5.9823268872759154 2 51.283017563519593 3.077219532225774 2 49.387593835685585 7.2854802506191776 2 64.695847418068993 5.0911500588892524 2 22.303320427561658 2.7178213368926767 2 46.061317882592533 1.4 2 54.587122722324125 5.5492265252542925 2 62.470876584522252 5.164970529702777 2 18.892257149542431 4.8859192787632955 2 43.917884496927741 5.6778267034645395 2 42.06589105347792 7.6960741460036131 2 51.861417235345677 1.4 2 61.808334922249486 9.2632503605063548 2 11.958930462025759 1.4 2 15.200491288225761 3.1560929601378427 2 47.941014012316735 1.4 2 55.788655539222226 7.942300183718058 2 55.589554239646617 1.4 2 22.938073083398564 6.4372046221771591 2 48.629313141475919 9.7452811123342116 2 53.39137702127708 7.4539515260773763 2 61.679503174128151 2.9158648833548129 2 66.017203699786265 3.276068088019318 2 19.840200887490333 2.9428895345661279 2 40.902850727843941 3.2433717415665995 2 55.295417275732959 3.4075357935392816 2 59.41076491553882 1.4 2 16.845886012300678 9.4128390393634849 2 40.080331411599524 1.4 2 45.995435723450953 5.5923094610761339 2 49.92034605596605 1.4 2 60.599748407353538 6.9105231148858905 2 66.659311801733253 9.3098733266577156 2 98.6 1.4 2 18.589389296658148 1.4 2 25.283606676751052 1.4 2 50.239297922574416 4.8079941048685884 2 57.239827304236151 3.2680447304395495 2 59.211569450494281 2.9536251182732767 2 14.125514139724912 1.4 2 20.497118904319343 6.8232605415380885 2 27.386949596622944 1.4 2 42.026102121990739 5.0753572026284637 2 51.457009969788388 6.5473501397857818 2 51.303878835549114 9.1215820796456875 2 63.764653699280004 3.1947285775539975 2 </DataArray>
</Points>
<Cells>
<DataArray Name="connectivity" format="ascii" type="Int32">0</DataArray>
<DataArray Name="offsets" format="ascii" type="Int32">0</DataArray>
<DataArray Name="types" format="ascii" type="UInt8">1</DataArray>
</Cells>
<PointData>
<DataArray Name="Points" NumberOfComponents="3" format="ascii" type="Float32">23.312801173416254 1.4 2 44.186898294476549 1.4 2 52.70505522122631 4.8039784799415548 2 60.571258174314799 4.4425443996354446 2 17.980318158166522 7.0564089889190944 2 43.141001054413316 3.2181422829925594 2 44.624085866376184 8.0293849405822844 2 53.478741201941027 3.0789156263513391 2 63.250503747193235 7.2889669301520428 2 12.942248042969966 3.2777597922477253 2 16.49200940114455 5.0566348658137441 2 46.996675880551912 3.3629268945067157 2 58.057700963030278 7.2469022742802611 2 57.399992456449212 1.4 2 15.449231349419263 7.2825353723546407 2 22.283649557432895 8.8527116969112747 2 47.02858793047865 7.7065256028547875 2 53.955258630075591 9.8998631548773819 2 63.364278756258543 1.4 2 65.275796941713892 1.4 2 20.897343260117257 1.4 2 42.13917721839114 1.4 2 53.762662540440921 1.4 2 61.30117519090691 1.4 2 14.107070950338265 5.2046925273034255 2 19.567144638362635 9.1856175655085792 2 45.055117689395203 3.4715425165307061 2 49.009913771186753 3.1106129901242028 2 59.186872444469266 9.2887179745832675 2 65.653029775153811 7.142442050733532 2 98.6 3.3211630243221553 2 17.498659034002007 3.0794459207870557 2 48.136172921861039 5.3166097568536648 2 56.56194641810567 5.4254265509168773 2 58.708805534654118 5.1332024200984412 2 16.344205544884897 1.4 2 21.272281977527374 4.606261666544734 2 40.197357572073535 5.9823268872759154 2 51.283017563519593 3.077219532225774 2 49.387593835685585 7.2854802506191776 2 64.695847418068993 5.0911500588892524 2 22.303320427561658 2.7178213368926767 2 46.061317882592533 1.4 2 54.587122722324125 5.5492265252542925 2 62.470876584522252 5.164970529702777 2 18.892257149542431 4.8859192787632955 2 43.917884496927741 5.6778267034645395 2 42.06589105347792 7.6960741460036131 2 51.861417235345677 1.4 2 61.808334922249486 9.2632503605063548 2 11.958930462025759 1.4 2 15.200491288225761 3.1560929601378427 2 47.941014012316735 1.4 2 55.788655539222226 7.942300183718058 2 55.589554239646617 1.4 2 22.938073083398564 6.4372046221771591 2 48.629313141475919 9.7452811123342116 2 53.39137702127708 7.4539515260773763 2 61.679503174128151 2.9158648833548129 2 66.017203699786265 3.276068088019318 2 19.840200887490333 2.9428895345661279 2 40.902850727843941 3.2433717415665995 2 55.295417275732959 3.4075357935392816 2 59.41076491553882 1.4 2 16.845886012300678 9.4128390393634849 2 40.080331411599524 1.4 2 45.995435723450953 5.5923094610761339 2 49.92034605596605 1.4 2 60.599748407353538 6.9105231148858905 2 66.659311801733253 9.3098733266577156 2 98.6 1.4 2 18.589389296658148 1.4 2 25.283606676751052 1.4 2 50.239297922574416 4.8079941048685884 2 57.239827304236151 3.2680447304395495 2 59.211569450494281 2.9536251182732767 2 14.125514139724912 1.4 2 20.497118904319343 6.8232605415380885 2 27.386949596622944 1.4 2 42.026102121990739 5.0753572026284637 2 51.457009969788388 6.5473501397857818 2 51.303878835549114 9.1215820796456875 2 63.764653699280004 3.1947285775539975 2 </DataArray>
<DataArray Name="forces" NumberOfComponents="3" format="ascii" type="Float32">-0.0054312104141824857 -1.2001006612090384 0.0 -0.037464837889054969 -1.1218545081864866 0.0 -0.034715390747253883 0.38389753835671214 0.0 0.033865200462414424 0.43044391324442716 0.0 -0.009070970872158246 0.37823110625290535 0.0 -0.041681658017792667 0.36772586146940667 0.0 -0.055602786859342487 0.41368420980796677 0.0 0.063130491562431446 0.39946757797326904 0.0 0.030775067706755421 0.40138171528379679 0.0 -0.024193756469913397 0.37369583406175644 0.0 -0.0028773269112150057 0.38012539502212234 0.0 -0.03762394026082716 0.38315517755256312 0.0 0.058911833330527019 0.40258823871284494 0.0 -0.035168523815478803 -1.1944410849367884 0.0 -0.024613786384753505 0.38350946819115461 0.0 -0.0003774640073065938 0.36557410036889088 0.0 -0.028987932249019382 0.41071555740966464 0.0 0.020511795282623375 0.37995445887752516 0.0 0.036832719737855651 -1.2960040728580327 0.0 0.030379860862955022 -1.0763235041431278 0.0 -0.0037876833317395109 -1.3653222116762742 0.0 -0.038540414598695505 -1.1148432492417222 0.0 -0.058583293321354507 -1.3055852519574191 0.0 0.030999615109832734 -1.3149333134963379 0.0 -0.015334799621261663 0.37793355774714649 0.0 -0.0030882701444958222 0.36107459815702569 0.0 -0.045472419195311087 0.39872106644800881 0.0 -0.0077785975989882461 0.36873309141446742 0.0 0.029982987551253119 0.44198527023215245 0.0 0.028086862183231504 0.38710914761780668 0.0 1.0694435036868377 0.41602562408131438 0.0 -0.009445521139152091 0.37775747073809668 0.0 -0.049206146423962926 0.38557033407618813 0.0 0.020456770713884603 0.40189312860727422 0.0 0.025817159165623299 0.3769963210433252 0.0 -0.02134510711615567 -1.2193297552866622 0.0 0.052128988254952907 0.35295596712099486 0.0 -0.051132819552687447 0.40569298694478279 0.0 0.035739658965671939 0.35502252313365434 0.0 -0.017049444096130809 0.38006016882711757 0.0 0.018967905446069133 0.38515425829729016 0.0 0.01698280330499824 0.37717970749608026 0.0 -0.046983074784478607 -1.0153814131051553 0.0 0.0057014306085451383 0.36332984288275127 0.0 0.029947398136771386 0.3854706315814852 0.0 0.020636464837087254 0.37396118562595354 0.0 -0.08204010103145154 0.39619114850464554 0.0 -0.063409839127518228 0.37419112186769005 0.0 -0.030612029821969533 -1.3098139937801643 0.0 0.039903542896432095 0.42403309986755922 0.0 -0.023362442656149396 -0.90708476314613884 0.0 -0.017833711620324155 0.37226038585921817 0.0 -0.045781552500444245 -1.2270456131704806 0.0 0.025734608852856888 0.37951736769557948 0.0 -0.027959138603427747 -1.0548592252562401 0.0 0.02202855632288625 0.37346465147822611 0.0 0.0092533351985098558 0.39295086225910408 0.0 0.012310683335197553 0.37718085055854089 0.0 0.0029140317693731044 0.36728198932122946 0.0 0.00061162118162538803 0.38090316596131268 0.0 6.7316056598820673e-05 0.36988346957570567 0.0 -0.062084800119860728 0.32561733910548163 0.0 0.094181063641471718 0.34188213092619962 0.0 -0.022700515508535579 -1.2617768294270242 0.0 -0.011531606102010872 0.3848275558762983 0.0 -0.047789460030746411 -0.7481052038440118 0.0 -0.062758056409995544 0.41280170482678019 0.0 -0.036018289678206639 -1.2591000369746783 0.0 0.036341939330671189 0.42253958833814342 0.0 0.0010198261956850529 0.4046230289644831 0.0 0.34421044335801132 -0.93239030962784053 0.0 -0.015722288993317068 -1.3021088979047963 0.0 0.032461349972094711 -1.1894185323709894 0.0 -0.034490296944349408 0.36333945250546185 0.0 0.076962597460698445 0.36975664493039784 0.0 0.059481728207157802 0.35898830176631691 0.0 -0.025897911953806363 -1.1240065167036468 0.0 0.011710234385191753 0.35568505000940065 0.0 0.020298646512517449 -0.97584598761804009 0.0 -0.084265782460328453 0.33507010009832211 0.0 -0.013205584263460411 0.38260347377075954 0.0 0.0092437394265907618 0.38019947830116552 0.0 0.002103574179898593 0.3701143801363535 0.0 </DataArray>
<DataArray Name="radii" format="ascii" type="Float32">1.4 1.4 1.4 1.4 1.4 1.4 1.4 1.4 1.4 1.4 1.4 1.4 1.4 1.4 1.4 1.4 1.4 1.4 1.4 1.4 1.4 1.4 1.4 1.4 1.4 1.4 1.4 1.4 1.4 1.4 1.4 1.4 1.4 1.4 1.4 1.4 1.4 1.4 1.4 1.4 1.4 1.4 1.4 1.4 1.4 1.4 1.4 1.4 1.4 1.4 1.4 1.4 1.4 1.4 1.4 1.4 1.4 1.4 1.4 1.4 1.4 1.4 1.4 1.4 1.4 1.4 1.4 1.4 1.4 1.4 1.4 1.4 1.4 1.4 1.4 1.4 1.4 1.4 1.4 1.4 1.4 1.4 1.4 </DataArray>
</PointData>
<CellData/>
</Piece>
</UnstructuredGrid>
</VTKFile>
