<?xml version="1.0" ?>
<VTKFile byte_order="LittleEndian" type="UnstructuredGrid" version="0.1">
<UnstructuredGrid>
<Piece NumberOfCells="0" NumberOfPoints="22">
<Points>
<DataArray NumberOfComponents="3" format="ascii" type="Float32">0 0 0 10.451791922307994 1.2 2 25.391875193552302 7.2241741575315119 2 38.392039918544711 5.0481190563989591 2 68.543506633906119 3.4032597538104339 2 93.008648852974588 4.3714222586799822 2 10.613273043414024 5.5753242530688274 2 29.488697353503117 1.2 2 68.436036638803159 7.469576773840604 2 36.658432157770882 1 2 67.148304429230492 1.4 2 93.888814350889717 6.1190445204157031 2 28.720538517076871 4.7753777182795529 2 38.792243504039341 1.4 2 95.62011463178527 1.2 2 26.299983959273625 2.7041547461122795 2 11.069580836865324 3.4870662099162604 2 28.156476758088633 2.8594950015991341 2 95.989030515561737 3.3255154254283026 2 97.757307611076683 3.9741891961818174 2 24.535063460670269 5.0477423981582445 2 66.834386168441327 6.2582686071759968 2 </DataArray>
</Points>
<Cells>
<DataArray Name="connectivity" format="ascii" type="Int32">0</DataArray>
<DataArray Name="offsets" format="ascii" type="Int32">0</DataArray>
<DataArray Name="types" format="ascii" type="UInt8">1</DataArray>
</Cells>
<PointData>
<DataArray Name="Points" NumberOfComponents="3" format="ascii" type="Float32">0 0 0 10.451791922307994 1.2 2 25.391875193552302 7.2241741575315119 2 38.392039918544711 5.0481190563989591 2 68.543506633906119 3.4032597538104339 2 93.008648852974588 4.3714222586799822 2 10.613273043414024 5.5753242530688274 2 29.488697353503117 1.2 2 68.436036638803159 7.469576773840604 2 36.658432157770882 1 2 67.148304429230492 1.4 2 93.888814350889717 6.1190445204157031 2 28.720538517076871 4.7753777182795529 2 38.792243504039341 1.4 2 95.62011463178527 1.2 2 26.299983959273625 2.7041547461122795 2 11.069580836865324 3.4870662099162604 2 28.156476758088633 2.8594950015991341 2 95.989030515561737 3.3255154254283026 2 97.757307611076683 3.9741891961818174 2 24.535063460670269 5.0477423981582445 2 66.834386168441327 6.2582686071759968 2 </DataArray>
<DataArray Name="forces" NumberOfComponents="3" format="ascii" type="Float32">0 0 0 0.010083656036616179 -0.15221940978616974 0.0 -0.045968223793226314 0.057082328629380577 0.0 0.07136589153356801 0.080668549332592585 0.0 0.0048210224616589414 0.051821528528857484 0.0 0.063725640281574583 0.027452594875083468 0.0 0.020032389915368591 -0.019548301141294383 0.0 0.0076627501833171699 -0.10508668863778993 0.0 0.017711699023859388 0.05451392480345732 0.0 0.08287643288908958 -0.014063470112624127 0.0 0.065956739774269593 -0.15194828532937918 0.0 0.0018113281901060221 0.024720734282327319 0.0 -0.076184427335820551 0.10391189308704123 0.0 -0.14701511036688153 -0.14661230380776746 0.0 0.026414317064728667 -0.083052014571327173 0.0 0.022890272107457119 0.047049112250969721 0.0 0.058446218264747649 0.085802680623194544 0.0 -0.058270867561560774 0.0040043320684216809 0.0 0.046614332239849961 0.043989336842729036 0.0 0.00044278991310769955 0.021430056596072031 0.0 0.054975795610663618 0.027749225762101593 0.0 -0.060654922729696067 0.064975764639055522 0.0 </DataArray>
<DataArray Name="radii" format="ascii" type="Float32">0 1.2 1.4 1.4 1.2 1 1 1.2 1 1 1.4 1 1 1.4 1.2 1 1.2 1 1 1 1 1 </DataArray>
</PointData>
<CellData/>
</Piece>
</UnstructuredGrid>
</VTKFile>
