<?xml version="1.0" ?>
<VTKFile byte_order="LittleEndian" type="UnstructuredGrid" version="0.1">
<UnstructuredGrid>
<Piece NumberOfCells="0" NumberOfPoints="18">
<Points>
<DataArray NumberOfComponents="3" format="ascii" type="Float32">12.471952125152356 1.7435875506539333 2 20.015890135798315 1.2 2 25.903201869900524 1.5781743969800157 2 39.269959079476443 1.4957203977991211 2 46.329567201228627 1.2 2 54.088919991002498 2.9883299203324176 2 59.295186777331274 1.3550097310019726 2 67.387658899716698 1.4596778963041375 2 92.624213357938117 1.3914467976745535 2 14.809271771782928 1.2 2 19.975154403552875 3.6280044357369228 2 28.27293082502301 1.2 2 41.651347542263274 1.2 2 47.219038455860343 3.452662684061099 2 52.482402019952282 1.2 2 61.689826560838249 1.2 2 65.002095189401061 1.2 2 95.016214139286774 1.2 2 </DataArray>
</Points>
<Cells>
<DataArray Name="connectivity" format="ascii" type="Int32">0</DataArray>
<DataArray Name="offsets" format="ascii" type="Int32">0</DataArray>
<DataArray Name="types" format="ascii" type="UInt8">1</DataArray>
</Cells>
<PointData>
<DataArray Name="Points" NumberOfComponents="3" format="ascii" type="Float32">12.471952125152356 1.7435875506539333 2 20.015890135798315 1.2 2 25.903201869900524 1.5781743969800157 2 39.269959079476443 1.4957203977991211 2 46.329567201228627 1.2 2 54.088919991002498 2.9883299203324176 2 59.295186777331274 1.3550097310019726 2 67.387658899716698 1.4596778963041375 2 92.624213357938117 1.3914467976745535 2 14.809271771782928 1.2 2 19.975154403552875 3.6280044357369228 2 28.27293082502301 1.2 2 41.651347542263274 1.2 2 47.219038455860343 3.452662684061099 2 52.482402019952282 1.2 2 61.689826560838249 1.2 2 65.002095189401061 1.2 2 95.016214139286774 1.2 2 </DataArray>
<DataArray Name="forces" NumberOfComponents="3" format="ascii" type="Float32">-0.0015832592920909157 0.00038344555393365296 0.0 0.00079842257586481538 -0.049974634028340612 0.0 -0.0010817339053212636 0.00018270826509418474 0.0 -0.00081918174549798657 0.00010927076711064324 0.0 -0.011917015072406912 -0.031311232294998451 0.0 0.0070963514344585974 0.008066675210063462 0.0 -0.00038410620932746741 2.8356140202772936e-05 0.0 0.0007019290432194172 8.2845823703482372e-05 0.0 -0.00049360219399688593 4.4005186870024049e-05 0.0 0.0015832592920909157 -0.00038344555393365296 0.0 -0.00079842257586481538 0.049974634028340612 0.0 0.0010817339053212636 -0.00018270826509418474 0.0 0.00081918174549798657 -0.00010927076711064324 0.0 0.011917015072406912 0.031311232294998451 0.0 -0.0070963514344585974 -0.008066675210063462 0.0 0.00038410620932746741 -2.8356140202772936e-05 0.0 -0.0007019290432194172 -8.2845823703482372e-05 0.0 0.00049360219399688593 -4.4005186870024049e-05 0.0 </DataArray>
<DataArray Name="radii" format="ascii" type="Float32">1.2 1.2 1.2 1.2 1.2 1.2 1.2 1.2 1.2 1.2 1.2 1.2 1.2 1.2 1.2 1.2 1.2 1.2 </DataArray>
</PointData>
<CellData/>
</Piece>
</UnstructuredGrid>
</VTKFile>
