<?xml version="1.0" ?>
<VTKFile byte_order="LittleEndian" type="UnstructuredGrid" version="0.1">
<UnstructuredGrid>
<Piece NumberOfCells="0" NumberOfPoints="85">
<Points>
<DataArray NumberOfComponents="3" format="ascii" type="Float32">23.157029270599082 1.2 2 44.317393270289244 1.2 2 52.650417311740242 4.8451999432434585 2 60.407195000561273 4.4098300965548862 2 17.99005620540289 6.8622624241451566 2 43.351021463456753 3.232054222236417 2 44.933255947817422 7.589501208310053 2 53.101513138352537 2.9297748520038063 2 63.164295105422561 7.1098635174488019 2 98.8 6.2378079870326912 2 13.251108388760722 3.2119566993605746 2 16.598674869536257 5.0331635299047992 2 23.128995293682621 4.5192846537875377 2 47.18282925758551 3.2413317330605689 2 57.564007744756381 7.1448347986262863 2 57.636945310972763 1.2 2 15.695545232014455 7.1493288963537891 2 21.923323678277363 8.6300308561677834 2 47.235580085133321 7.4107581649904031 2 53.768271917851919 9.5165929509992662 2 63.084639441805166 1.2 2 64.97481700611867 1.2 2 20.884709030711999 1.2 2 42.413522784705457 1.2 2 53.948394092684694 1.2 2 61.207676261784151 1.2 2 14.3754182895863 5.1896824209541785 2 19.615266683711646 9.1186701922576088 2 45.26577908966383 3.2595183648778687 2 49.111480579496231 3.141026812730205 2 59.239211433264657 8.6089188314020966 2 65.443194447082647 7.1062278326153185 2 98.8 3.0483485655243436 2 17.591866029539354 3.0588841427893314 2 48.278496254319812 5.2585869802493601 2 56.540870997691052 5.1125922063338329 2 58.601924595191214 5.2470223073725766 2 16.47595426037666 1.2 2 21.025934246097577 4.8133049357544895 2 40.484910954387587 5.7839523990959609 2 51.137834148904034 3.0989629930566269 2 49.47023774969108 7.1653393188355814 2 64.506616983198128 5.1495056072074403 2 22.046796125441155 2.8506497234121011 2 46.205725381048566 1.2 2 54.641140967337684 5.6240727175550029 2 62.35494906789156 5.0734666308414331 2 18.8543377490682 4.8999490532426684 2 44.30672364776634 5.363287163377505 2 42.570193574784966 7.5768600379134439 2 51.952266473835401 1.2 2 61.544308058591191 8.7098648577799587 2 12.210430383659997 1.2 2 15.399171559871899 3.1341825378399264 2 48.09651235614831 1.2 2 55.490401348741706 7.8578627005826505 2 55.752406626579045 1.2 2 22.624604103958198 6.5220701972503274 2 48.678409414715489 9.3099497103463893 2 53.344301152868105 7.3146545441752631 2 61.668568739022064 2.9599722922304035 2 65.794921998512848 3.2597054124762903 2 19.811249001530097 2.9812574204105937 2 41.380609961666416 3.2079888759310702 2 54.959129394935218 3.3724241161942099 2 59.485467857610473 1.2 2 17.232387549460647 8.9751225112768509 2 40.496750004349899 1.2 2 46.271411093276555 5.3363985643200715 2 50.02370802760899 1.2 2 60.51815549456591 6.6114816120227973 2 66.696339777284706 8.9709516319507632 2 97.941578166210277 1.2 2 18.664357266226755 1.2 2 25.197958888520535 1.2 2 50.326580563120032 4.9536635773375366 2 56.934997530608385 3.0953760229125433 2 58.954218310106 3.0467798465095588 2 14.324454746401694 1.2 2 20.289864469782469 6.8852850317145311 2 27.240783032476354 1.2 2 42.360380973633397 5.2451418880847811 2 51.483942946498104 6.5769985282226067 2 51.438559476434527 8.7912495765216239 2 63.724158974954463 3.1655909002717388 2 </DataArray>
</Points>
<Cells>
<DataArray Name="connectivity" format="ascii" type="Int32">0</DataArray>
<DataArray Name="offsets" format="ascii" type="Int32">0</DataArray>
<DataArray Name="types" format="ascii" type="UInt8">1</DataArray>
</Cells>
<PointData>
<DataArray Name="Points" NumberOfComponents="3" format="ascii" type="Float32">23.157029270599082 1.2 2 44.317393270289244 1.2 2 52.650417311740242 4.8451999432434585 2 60.407195000561273 4.4098300965548862 2 17.99005620540289 6.8622624241451566 2 43.351021463456753 3.232054222236417 2 44.933255947817422 7.589501208310053 2 53.101513138352537 2.9297748520038063 2 63.164295105422561 7.1098635174488019 2 98.8 6.2378079870326912 2 13.251108388760722 3.2119566993605746 2 16.598674869536257 5.0331635299047992 2 23.128995293682621 4.5192846537875377 2 47.18282925758551 3.2413317330605689 2 57.564007744756381 7.1448347986262863 2 57.636945310972763 1.2 2 15.695545232014455 7.1493288963537891 2 21.923323678277363 8.6300308561677834 2 47.235580085133321 7.4107581649904031 2 53.768271917851919 9.5165929509992662 2 63.084639441805166 1.2 2 64.97481700611867 1.2 2 20.884709030711999 1.2 2 42.413522784705457 1.2 2 53.948394092684694 1.2 2 61.207676261784151 1.2 2 14.3754182895863 5.1896824209541785 2 19.615266683711646 9.1186701922576088 2 45.26577908966383 3.2595183648778687 2 49.111480579496231 3.141026812730205 2 59.239211433264657 8.6089188314020966 2 65.443194447082647 7.1062278326153185 2 98.8 3.0483485655243436 2 17.591866029539354 3.0588841427893314 2 48.278496254319812 5.2585869802493601 2 56.540870997691052 5.1125922063338329 2 58.601924595191214 5.2470223073725766 2 16.47595426037666 1.2 2 21.025934246097577 4.8133049357544895 2 40.484910954387587 5.7839523990959609 2 51.137834148904034 3.0989629930566269 2 49.47023774969108 7.1653393188355814 2 64.506616983198128 5.1495056072074403 2 22.046796125441155 2.8506497234121011 2 46.205725381048566 1.2 2 54.641140967337684 5.6240727175550029 2 62.35494906789156 5.0734666308414331 2 18.8543377490682 4.8999490532426684 2 44.30672364776634 5.363287163377505 2 42.570193574784966 7.5768600379134439 2 51.952266473835401 1.2 2 61.544308058591191 8.7098648577799587 2 12.210430383659997 1.2 2 15.399171559871899 3.1341825378399264 2 48.09651235614831 1.2 2 55.490401348741706 7.8578627005826505 2 55.752406626579045 1.2 2 22.624604103958198 6.5220701972503274 2 48.678409414715489 9.3099497103463893 2 53.344301152868105 7.3146545441752631 2 61.668568739022064 2.9599722922304035 2 65.794921998512848 3.2597054124762903 2 19.811249001530097 2.9812574204105937 2 41.380609961666416 3.2079888759310702 2 54.959129394935218 3.3724241161942099 2 59.485467857610473 1.2 2 17.232387549460647 8.9751225112768509 2 40.496750004349899 1.2 2 46.271411093276555 5.3363985643200715 2 50.02370802760899 1.2 2 60.51815549456591 6.6114816120227973 2 66.696339777284706 8.9709516319507632 2 97.941578166210277 1.2 2 18.664357266226755 1.2 2 25.197958888520535 1.2 2 50.326580563120032 4.9536635773375366 2 56.934997530608385 3.0953760229125433 2 58.954218310106 3.0467798465095588 2 14.324454746401694 1.2 2 20.289864469782469 6.8852850317145311 2 27.240783032476354 1.2 2 42.360380973633397 5.2451418880847811 2 51.483942946498104 6.5769985282226067 2 51.438559476434527 8.7912495765216239 2 63.724158974954463 3.1655909002717388 2 </DataArray>
<DataArray Name="forces" NumberOfComponents="3" format="ascii" type="Float32">-0.026263485749637383 -0.37279237788430342 0.0 -0.0071177397049337898 -0.25510215588123786 0.0 -0.038420134848114657 0.1317541926863709 0.0 0.022030408421682302 0.16367463255312589 0.0 -0.0024865139635064509 0.16056588411967479 0.0 -0.0095418236782056076 0.081563641721894758 0.0 -0.030020554202034727 0.091463813831342 0.0 0.020250630013334381 0.12516953555378388 0.0 0.029518271688026135 0.12864108810269592 0.0 0.11250518357253042 0.15568907874080903 0.0 -0.0023115689350688834 0.090124762186340246 0.0 0.0046854784513961911 0.12573000383020622 0.0 0.014660203806841965 0.16859697063855911 0.0 0.0035331716972198182 0.095603030005025333 0.0 0.0056604858159448046 0.13828787514664675 0.0 0.018860858666250396 -0.47130647150027949 0.0 -0.010915628536000902 0.11847768550525575 0.0 -0.0015965393618527831 0.17237810633804895 0.0 -0.02539841175556861 0.10887374501678784 0.0 0.021203239522005077 0.16411829196581407 0.0 -0.0013036051097836676 -0.4339841272318864 0.0 -0.00082513827368067838 -0.28147802897839497 0.0 -0.0020415116471917127 -0.59755588582149066 0.0 -0.016817923138456536 -0.26905209482660075 0.0 0.014102340664317963 -0.4374914401802143 0.0 0.0076408432079015931 -0.56384543395479636 0.0 -0.00095526299997511499 0.098802250700718741 0.0 -0.046463702759310943 0.064948511602147735 0.0 -0.0024612470861481578 0.092723687599452903 0.0 0.0079355826451123906 0.10443957989129238 0.0 0.024279178926329636 0.13658733124917921 0.0 0.044070728596995096 0.13467949573357449 0.0 0.41786592518936905 0.13658473388183617 0.0 0.0099648603910114375 0.11094617847455697 0.0 -0.0053335624711772223 0.10605252651681274 0.0 -0.0060052382535019863 0.12913340574950438 0.0 0.010058283196872641 0.13061598703044788 0.0 0.0087356670487168109 -0.36713690450677883 0.0 0.0017151638059843127 0.1348077977564878 0.0 -0.011939554483523407 0.16502014815201721 0.0 0.0057426218043845345 0.093255718833593182 0.0 -0.029583438090532821 0.11754389428663686 0.0 0.027963267717370788 0.12454976521256392 0.0 0.012253838589686983 0.13387247608064895 0.0 -0.00030193758496244172 -0.24920277135669877 0.0 -0.032457030623715508 0.1112358767350666 0.0 0.028977653686189389 0.11655458199281456 0.0 -0.0038564683389617771 0.13634024394530186 0.0 -0.018799840519487243 0.087731247595398132 0.0 -0.032086073349248498 0.059174915945840394 0.0 0.020517789038897116 -0.58323488496748954 0.0 0.033738671410322413 0.15096316971694307 0.0 -0.0098712989706953302 -0.22685022686031067 0.0 0.0092762632823464031 0.10231799094210139 0.0 0.0058078532315246623 -0.33891979410822493 0.0 -0.0062096031392182838 0.11926994988004996 0.0 0.021974092875652038 -0.22854506095787575 0.0 -0.0079509444214500777 0.16236104174984797 0.0 -0.029689512107985559 0.12062948025636494 0.0 -0.0039740455221033977 0.16358297919367251 0.0 -0.015062306591151264 0.10845602589695574 0.0 0.0078344365928141313 0.11062374458025601 0.0 0.0086969535926855468 0.11851555667151442 0.0 -0.023771017942692228 0.069304872240516471 0.0 0.033159378938376283 0.095269205821476563 0.0 0.0055351849382446472 -0.45994982525403583 0.0 -0.05823683673903219 0.16022567426474135 0.0 -0.027905770398154686 -0.23742565844808389 0.0 -0.0078451532736014129 0.09701047173067659 0.0 0.0087614967696191259 -0.40490770590095138 0.0 0.033664365334604006 0.14645528988494666 0.0 0.027159794320551239 0.14469254942804091 0.0 0.055480252701547321 -0.37780800874339882 0.0 0.0068545185713185519 -0.46435703760693847 0.0 -0.02137509691792383 -0.50344194758447569 0.0 -0.00087185790183208489 0.12343835610092235 0.0 0.043032316499147849 0.11037929648102722 0.0 0.054083741162150423 0.10999744049535681 0.0 0.0033660389632867438 -0.27246864271428284 0.0 0.010029896979261335 0.12851604494873115 0.0 -0.022094120118210547 -0.44707348663531665 0.0 -0.030857720013958041 0.056413710878274723 0.0 -0.015280166008248405 0.17624265018806665 0.0 -0.004085792883738457 0.18799474353904186 0.0 0.003407954031116267 0.10417657411945597 0.0 </DataArray>
<DataArray Name="radii" format="ascii" type="Float32">1.2 1.2 1.2 1.2 1.2 1.2 1.2 1.2 1.2 1.2 1.2 1.2 1.2 1.2 1.2 1.2 1.2 1.2 1.2 1.2 1.2 1.2 1.2 1.2 1.2 1.2 1.2 1.2 1.2 1.2 1.2 1.2 1.2 1.2 1.2 1.2 1.2 1.2 1.2 1.2 1.2 1.2 1.2 1.2 1.2 1.2 1.2 1.2 1.2 1.2 1.2 1.2 1.2 1.2 1.2 1.2 1.2 1.2 1.2 1.2 1.2 1.2 1.2 1.2 1.2 1.2 1.2 1.2 1.2 1.2 1.2 1.2 1.2 1.2 1.2 1.2 1.2 1.2 1.2 1.2 1.2 1.2 1.2 1.2 1.2 </DataArray>
</PointData>
<CellData/>
</Piece>
</UnstructuredGrid>
</VTKFile>
