<?xml version="1.0" ?>
<VTKFile byte_order="LittleEndian" type="UnstructuredGrid" version="0.1">
<UnstructuredGrid>
<Piece NumberOfCells="0" NumberOfPoints="127">
<Points>
<DataArray NumberOfComponents="3" format="ascii" type="Float32">44.201449099767359 1.2 2 52.275139988701213 5.3111025080521426 2 61.133708267349128 4.3661327516098467 2 16.881954845192435 7.6177915684192739 2 43.006181321549178 2.8989922843074369 2 43.376204246144702 8.4324506310097629 2 52.463333105946333 3.1423339569407265 2 63.132955390862435 8.8281033449784854 2 15.484487951860205 4.8506156107940832 2 45.953703271290053 4.7620540256171555 2 57.551141322223955 8.0640152164349299 2 57.534861235557514 1.2 2 15.19809145969074 6.8214816231872915 2 22.660831455161897 10.565046295227251 2 45.261301013183008 8.9291070092321778 2 54.074864052421404 10.508565704258634 2 20.876293831376881 2.4832022626414068 2 53.726614539008743 1.2 2 61.13213850567584 1.2 2 19.498197839888856 10.662830086715452 2 44.366576937125856 2.9761450928627959 2 49.067840526204932 2.6081129079298795 2 58.08886399347027 10.193964112289109 2 64.947111947366579 8.2391651509914663 2 16.529030565276525 3.3193633491681731 2 47.3221753114316 5.5589627469241396 2 57.70847350744107 5.7387024420257777 2 58.839033554665527 6.5772000315674459 2 15.465572528551721 1.2 2 21.858584900448076 4.424105812613794 2 51.371693758151444 3.6037472077824346 2 48.928331857622076 9.1553848059966736 2 65.265880627124744 6.0388714167275142 2 45.376557124997426 1.2 2 54.631241828155495 6.0353881119083059 2 63.686098068733678 5.1657138595942609 2 18.771578460710913 4.8006924199546681 2 42.853256320369063 6.5838518330247444 2 41.678936027766376 9.8684434077012586 2 51.394741970621325 1.2 2 62.263937686902437 10.746571563485249 2 47.756230091523577 1.2 2 56.118137199200497 9.7480089663715717 2 56.292651218786283 1.2 2 47.379572418375538 10.875553000390367 2 52.64636572169919 8.7656646263727023 2 61.023350131584984 2.8758990308777048 2 20.076914682393323 3.5191070347122717 2 55.730600898892483 4.6967164083068162 2 59.921142030790435 1.2 2 17.188913744838246 9.683273850535727 2 46.239220364390249 6.9520597862990297 2 50.281766592590458 1.2 2 61.232860941250102 8.6262446783048219 2 66.467541281209577 9.3558978863910323 2 17.5763294537687 1.2 2 50.667995856608691 5.220766258133243 2 56.820303121728841 3.9084319615216527 2 58.497813794169637 2.8334764305853168 2 20.583336369334081 7.1371928567329954 2 51.599491264238495 7.0103815057105683 2 50.82445124014761 9.0742258213908507 2 42.972761808447217 1.2 2 53.503982875225077 4.6783800510255062 2 59.743679951106358 4.8015511773770019 2 18.672727016234575 6.5804264495403482 2 42.40203111846207 4.3297952566184819 2 43.885694202630368 10.637074395556063 2 54.629940532426815 3.7257262073733846 2 63.717325736292644 6.8553127597690775 2 17.009127357376247 5.5304279636423903 2 47.57528428390038 3.9752554645899862 2 59.420736605261609 8.4041286074685466 2 56.83585849069874 2.6312800162641792 2 14.964756749209995 8.9772310463080913 2 22.884876332413729 8.3784416398137029 2 47.07437732475718 8.7769921593377038 2 55.824527594007066 11.949612549527128 2 20.408491404641513 1.2 2 41.528740678045935 1.2 2 53.452820087145625 2.5963695727368381 2 62.466126259500122 2.6187033173541865 2 13.840830864051899 5.4546011165376154 2 18.915755023066374 8.5115427542944513 2 44.694644223165447 4.5117909667181131 2 47.315895580199857 2.7291279541446931 2 60.129020556701661 10.511944597830876 2 17.818347251307042 3.5559681916217625 2 49.088901166687442 5.6203234382995095 2 56.476557038249389 6.1744784751764143 2 60.493929083624536 6.5020246188138664 2 16.578931289504126 1.6869477463692681 2 22.365858508269593 2.9560299413133926 2 50.407909071235594 2.9647824584409399 2 48.179274901772011 7.213981843540183 2 22.005849587657821 1.2 2 46.554931184978344 1.2 2 53.388042987570103 6.8634765113156018 2 62.102568063033324 5.1514770570945307 2 20.449482608630703 5.3157533279852229 2 43.506048070832257 5.109828920736156 2 41.336709215971702 7.7134752366000052 2 52.458682826101118 1.2 2 64.555793184351941 10.521676676575481 2 45.829089445930009 2.8687934210970667 2 55.819378901829239 7.650515907034527 2 54.991141389995079 1.2 2 22.285567064406443 6.354981228085105 2 49.73857724142254 11.125855780877774 2 54.43615486737454 8.4268193128203155 2 62.507099461663152 1.2 2 18.734043460777752 2.5657601273068784 2 55.255158021952703 2.5988029257701855 2 58.696214505815817 1.2 2 15.574594892149328 11.153339248219631 2 44.737539054479591 6.6788327043974363 2 49.016060102007835 1.2 2 62.108015745628606 6.8939049669940768 2 66.726969396177438 11.464154792101411 2 19.001841161258781 1.2 2 49.128317443903612 4.1276701424071724 2 58.287237417667406 4.3598682116043603 2 59.743783104438123 2.9181852529419081 2 20.995532163650903 9.0481592911502968 2 49.972401612543877 7.2584673146391889 2 51.979728194040653 10.897868654424402 2 63.074504882125112 3.5039364781042219 2 </DataArray>
</Points>
<Cells>
<DataArray Name="connectivity" format="ascii" type="Int32">0</DataArray>
<DataArray Name="offsets" format="ascii" type="Int32">0</DataArray>
<DataArray Name="types" format="ascii" type="UInt8">1</DataArray>
</Cells>
<PointData>
<DataArray Name="Points" NumberOfComponents="3" format="ascii" type="Float32">44.201449099767359 1.2 2 52.275139988701213 5.3111025080521426 2 61.133708267349128 4.3661327516098467 2 16.881954845192435 7.6177915684192739 2 43.006181321549178 2.8989922843074369 2 43.376204246144702 8.4324506310097629 2 52.463333105946333 3.1423339569407265 2 63.132955390862435 8.8281033449784854 2 15.484487951860205 4.8506156107940832 2 45.953703271290053 4.7620540256171555 2 57.551141322223955 8.0640152164349299 2 57.534861235557514 1.2 2 15.19809145969074 6.8214816231872915 2 22.660831455161897 10.565046295227251 2 45.261301013183008 8.9291070092321778 2 54.074864052421404 10.508565704258634 2 20.876293831376881 2.4832022626414068 2 53.726614539008743 1.2 2 61.13213850567584 1.2 2 19.498197839888856 10.662830086715452 2 44.366576937125856 2.9761450928627959 2 49.067840526204932 2.6081129079298795 2 58.08886399347027 10.193964112289109 2 64.947111947366579 8.2391651509914663 2 16.529030565276525 3.3193633491681731 2 47.3221753114316 5.5589627469241396 2 57.70847350744107 5.7387024420257777 2 58.839033554665527 6.5772000315674459 2 15.465572528551721 1.2 2 21.858584900448076 4.424105812613794 2 51.371693758151444 3.6037472077824346 2 48.928331857622076 9.1553848059966736 2 65.265880627124744 6.0388714167275142 2 45.376557124997426 1.2 2 54.631241828155495 6.0353881119083059 2 63.686098068733678 5.1657138595942609 2 18.771578460710913 4.8006924199546681 2 42.853256320369063 6.5838518330247444 2 41.678936027766376 9.8684434077012586 2 51.394741970621325 1.2 2 62.263937686902437 10.746571563485249 2 47.756230091523577 1.2 2 56.118137199200497 9.7480089663715717 2 56.292651218786283 1.2 2 47.379572418375538 10.875553000390367 2 52.64636572169919 8.7656646263727023 2 61.023350131584984 2.8758990308777048 2 20.076914682393323 3.5191070347122717 2 55.730600898892483 4.6967164083068162 2 59.921142030790435 1.2 2 17.188913744838246 9.683273850535727 2 46.239220364390249 6.9520597862990297 2 50.281766592590458 1.2 2 61.232860941250102 8.6262446783048219 2 66.467541281209577 9.3558978863910323 2 17.5763294537687 1.2 2 50.667995856608691 5.220766258133243 2 56.820303121728841 3.9084319615216527 2 58.497813794169637 2.8334764305853168 2 20.583336369334081 7.1371928567329954 2 51.599491264238495 7.0103815057105683 2 50.82445124014761 9.0742258213908507 2 42.972761808447217 1.2 2 53.503982875225077 4.6783800510255062 2 59.743679951106358 4.8015511773770019 2 18.672727016234575 6.5804264495403482 2 42.40203111846207 4.3297952566184819 2 43.885694202630368 10.637074395556063 2 54.629940532426815 3.7257262073733846 2 63.717325736292644 6.8553127597690775 2 17.009127357376247 5.5304279636423903 2 47.57528428390038 3.9752554645899862 2 59.420736605261609 8.4041286074685466 2 56.83585849069874 2.6312800162641792 2 14.964756749209995 8.9772310463080913 2 22.884876332413729 8.3784416398137029 2 47.07437732475718 8.7769921593377038 2 55.824527594007066 11.949612549527128 2 20.408491404641513 1.2 2 41.528740678045935 1.2 2 53.452820087145625 2.5963695727368381 2 62.466126259500122 2.6187033173541865 2 13.840830864051899 5.4546011165376154 2 18.915755023066374 8.5115427542944513 2 44.694644223165447 4.5117909667181131 2 47.315895580199857 2.7291279541446931 2 60.129020556701661 10.511944597830876 2 17.818347251307042 3.5559681916217625 2 49.088901166687442 5.6203234382995095 2 56.476557038249389 6.1744784751764143 2 60.493929083624536 6.5020246188138664 2 16.578931289504126 1.6869477463692681 2 22.365858508269593 2.9560299413133926 2 50.407909071235594 2.9647824584409399 2 48.179274901772011 7.213981843540183 2 22.005849587657821 1.2 2 46.554931184978344 1.2 2 53.388042987570103 6.8634765113156018 2 62.102568063033324 5.1514770570945307 2 20.449482608630703 5.3157533279852229 2 43.506048070832257 5.109828920736156 2 41.336709215971702 7.7134752366000052 2 52.458682826101118 1.2 2 64.555793184351941 10.521676676575481 2 45.829089445930009 2.8687934210970667 2 55.819378901829239 7.650515907034527 2 54.991141389995079 1.2 2 22.285567064406443 6.354981228085105 2 49.73857724142254 11.125855780877774 2 54.43615486737454 8.4268193128203155 2 62.507099461663152 1.2 2 18.734043460777752 2.5657601273068784 2 55.255158021952703 2.5988029257701855 2 58.696214505815817 1.2 2 15.574594892149328 11.153339248219631 2 44.737539054479591 6.6788327043974363 2 49.016060102007835 1.2 2 62.108015745628606 6.8939049669940768 2 66.726969396177438 11.464154792101411 2 19.001841161258781 1.2 2 49.128317443903612 4.1276701424071724 2 58.287237417667406 4.3598682116043603 2 59.743783104438123 2.9181852529419081 2 20.995532163650903 9.0481592911502968 2 49.972401612543877 7.2584673146391889 2 51.979728194040653 10.897868654424402 2 63.074504882125112 3.5039364781042219 2 </DataArray>
<DataArray Name="forces" NumberOfComponents="3" format="ascii" type="Float32">-0.019897348196607365 -0.93304891905325626 0.0 0.011455846286615057 0.21718206551189656 0.0 0.017073845192752957 0.29072540667737673 0.0 0.01252783743598776 0.29805502304122294 0.0 -0.045633720279801442 0.24722266364343287 0.0 -0.08957800660364891 0.32117422210672586 0.0 -0.067046498735428506 0.12187818549021978 0.0 0.019642839237228094 0.30847679864281485 0.0 -0.071751356517550186 0.20655121040157684 0.0 -0.064286982715045668 0.27695964101949688 0.0 0.0082259021309524227 0.30947519320519012 0.0 0.0038138473593336553 -1.1650042931671567 0.0 -0.021129921046731615 0.25465441789381715 0.0 0.08761037142114772 0.30370664943013675 0.0 -0.079748760743424935 0.26522501138801302 0.0 -0.0015145791476735559 0.34111071522000669 0.0 0.028970660417362695 0.23397364764462292 0.0 0.063025706681526905 -1.2535306060914067 0.0 0.021477059030915291 -1.1999318147667251 0.0 -0.087847164715281326 0.31244509346667637 0.0 -0.059385116416664219 0.24396527744522928 0.0 -0.085719125783842443 0.31031631415347538 0.0 -0.011803281506212682 0.36892961180931283 0.0 0.02399773575511107 0.27076733187057611 0.0 -0.045343245872423471 0.12612374011791461 0.0 0.013820973645352896 0.2568546910501871 0.0 0.05067347273314271 0.28306557283055822 0.0 0.039290743837097276 0.31495812918750471 0.0 -0.040557995453356532 -1.2903208484175099 0.0 -0.02367269493856268 0.26328057093658863 0.0 -0.044673681280038596 0.14612044895647441 0.0 -0.048704753744294393 0.31647800546151844 0.0 0.017195708369581009 0.2672701486821189 0.0 -0.016272584366024717 -0.96340448594308215 0.0 -0.044016255989533237 0.23353319919429355 0.0 0.012077366058081962 0.28523049341228834 0.0 -0.026025830417141502 0.23259454559869228 0.0 -0.07671219445324351 0.28049145751187798 0.0 -0.062196664623885005 0.3603569107388469 0.0 -0.00062810173937433156 -0.4635515019480555 0.0 0.053402988158238518 0.34592333285738147 0.0 -0.023043965697370439 -1.1323344658749972 0.0 -0.018111461146280483 0.24718384235847615 0.0 0.024532579301389801 -1.3477352973579197 0.0 -0.04477094787868173 0.33974706268472504 0.0 -0.014927920044116069 0.38982066402568805 0.0 0.00035428243722016028 0.24591088975603245 0.0 -0.025638217624908144 0.23006339576202484 0.0 -0.0092669241975940828 0.27342147159154379 0.0 0.0057025068535286605 -1.1791936034717603 0.0 0.011566159639491702 0.36284961095103341 0.0 -0.020664829730829282 0.25722292933546459 0.0 -0.073903262231224787 -1.0265781906843581 0.0 0.016585703547364522 0.34986659718136925 0.0 0.01552357175319042 0.30883128619179084 0.0 0.091428813740627835 -1.1105822012508826 0.0 0.0420969749877773 0.20583927811909167 0.0 0.0055577716503445451 0.28113567927818933 0.0 0.0065074113997021232 0.23832686621464483 0.0 0.046960828897072149 0.31871488202173548 0.0 -0.0046787395010178257 0.32343035514890095 0.0 -0.036838194064264945 0.34052379628994134 0.0 -0.015177181432534548 -1.0819370593099842 0.0 -0.044079243954136253 0.20177544726147548 0.0 0.025584947158525811 0.25967959083420955 0.0 -0.011993439369227449 0.24430535193664052 0.0 -0.058206463592057722 0.27232108386198339 0.0 -0.04027131686798327 0.31786363883116486 0.0 -0.029036646095296548 0.2193762731790101 0.0 -0.0031573665302943033 0.29445768906567382 0.0 -0.067091962309743472 0.2261585230975573 0.0 -0.050474315186189278 0.28386460962573595 0.0 0.0068874470183325348 0.3684327120912344 0.0 0.0096352115740964556 0.25663133909305347 0.0 0.01996652566190623 0.25748159821628513 0.0 -0.030952961013763658 0.27240577390972154 0.0 -0.076986613763906753 0.32948487269514959 0.0 0.078950783481503972 0.26368261079183586 0.0 0.029527338913746259 -1.1887050633414313 0.0 -0.0038094691297204664 -1.2739003449053505 0.0 -0.0056386568820308014 0.23214795833380295 0.0 -0.050424347742077269 0.2578782711605685 0.0 -0.065240523795545027 0.3061305111505972 0.0 0.0063567235079866335 0.27089690618347878 0.0 -0.053786180953529751 0.26880009574496549 0.0 -0.058400717478220662 0.26305736029098448 0.0 0.029695354446808576 0.38021564832851701 0.0 -0.09788897492109927 0.23026042613114894 0.0 -0.0058112698520311756 0.27324834120968688 0.0 0.042187160011709801 0.2643455699313042 0.0 0.021310690641505703 0.31435608408224047 0.0 0.031522270497377186 -0.0063614944521339228 0.0 0.0040033584012725693 0.25878226708038227 0.0 0.059620372269658606 0.023963040866567809 0.0 -0.035406856760833105 0.3176459482998551 0.0 0.027376754333194267 -1.1188267051101293 0.0 -0.0066997242314351946 -1.1579695936984029 0.0 -0.033764910160203443 0.30414729626732634 0.0 0.03860092147949945 0.25253742562565074 0.0 -0.0030647061841997947 0.29122368327892467 0.0 -0.038483885085926317 0.27001316289749105 0.0 -0.051240969314485907 0.32099996644194362 0.0 0.037173316103948639 -1.0058440380332265 0.0 0.037048432598883338 0.28862374642505717 0.0 -0.066626591368251081 0.23336393502217745 0.0 -0.015866984303907983 0.21398702534854569 0.0 0.043328785551966342 -1.2235305775206404 0.0 0.063407952604061457 0.26064607921575189 0.0 -0.054434429848317922 0.33952781583820801 0.0 -0.0075030766502058865 0.27832038463250131 0.0 0.023218106924899399 -1.1677264599125539 0.0 -0.0094567477913027609 0.24969487651248057 0.0 0.014731126545621476 0.24959391606545223 0.0 -0.0058266159497576964 -1.1183703043380042 0.0 -0.12440756059924588 0.28347130503967211 0.0 -0.07226204793872143 0.30448064261553692 0.0 -0.066791658141856391 -1.1938490232728443 0.0 -0.0025218982123872556 0.3000314108920078 0.0 0.0073038799058429797 0.34145745552323914 0.0 0.068157413876359124 -1.0675342311187037 0.0 0.049370950062208929 0.24028198563869929 0.0 0.034479767907041992 0.26204245872167903 0.0 0.019891263105566132 0.21676530281640286 0.0 -0.0083216220070463087 0.38588480613058257 0.0 -0.0195371953597967 0.27739546497881595 0.0 -0.040077081687350996 0.40241743084153608 0.0 0.045102861001145543 0.20318590703402081 0.0 </DataArray>
<DataArray Name="radii" format="ascii" type="Float32">1.2 1.2 1.2 1.2 1.2 1.2 1.2 1.2 1.2 1.2 1.2 1.2 1.2 1.2 1.2 1.2 1.2 1.2 1.2 1.2 1.2 1.2 1.2 1.2 1.2 1.2 1.2 1.2 1.2 1.2 1.2 1.2 1.2 1.2 1.2 1.2 1.2 1.2 1.2 1.2 1.2 1.2 1.2 1.2 1.2 1.2 1.2 1.2 1.2 1.2 1.2 1.2 1.2 1.2 1.2 1.2 1.2 1.2 1.2 1.2 1.2 1.2 1.2 1.2 1.2 1.2 1.2 1.2 1.2 1.2 1.2 1.2 1.2 1.2 1.2 1.2 1.2 1.2 1.2 1.2 1.2 1.2 1.2 1.2 1.2 1.2 1.2 1.2 1.2 1.2 1.2 1.2 1.2 1.2 1.2 1.2 1.2 1.2 1.2 1.2 1.2 1.2 1.2 1.2 1.2 1.2 1.2 1.2 1.2 1.2 1.2 1.2 1.2 1.2 1.2 1.2 1.2 1.2 1.2 1.2 1.2 1.2 1.2 1.2 1.2 1.2 1.2 </DataArray>
</PointData>
<CellData/>
</Piece>
</UnstructuredGrid>
</VTKFile>
