<?xml version="1.0" ?>
<VTKFile byte_order="LittleEndian" type="UnstructuredGrid" version="0.1">
<UnstructuredGrid>
<Piece NumberOfCells="0" NumberOfPoints="10">
<Points>
<DataArray NumberOfComponents="3" format="ascii" type="Float32">6.9835093191721187 1.024098947908044 2 32.797452649607571 1.7133628455491519 2 73.877601216612419 2.6103971037675739 2 79.507235327929308 1.4989987852685964 2 86.98408791647077 2.9115044407846118 2 5.7167364191994574 2.5729900955989038 2 34.665759453859728 1 2 72.655060194209881 1 2 81.477364436832445 1.1491864616538701 2 86.293586561685473 1 2 </DataArray>
</Points>
<Cells>
<DataArray Name="connectivity" format="ascii" type="Int32">0</DataArray>
<DataArray Name="offsets" format="ascii" type="Int32">0</DataArray>
<DataArray Name="types" format="ascii" type="UInt8">1</DataArray>
</Cells>
<PointData>
<DataArray Name="Points" NumberOfComponents="3" format="ascii" type="Float32">6.9835093191721187 1.024098947908044 2 32.797452649607571 1.7133628455491519 2 73.877601216612419 2.6103971037675739 2 79.507235327929308 1.4989987852685964 2 86.98408791647077 2.9115044407846118 2 5.7167364191994574 2.5729900955989038 2 34.665759453859728 1 2 72.655060194209881 1 2 81.477364436832445 1.1491864616538701 2 86.293586561685473 1 2 </DataArray>
<DataArray Name="forces" NumberOfComponents="3" format="ascii" type="Float32">0.0 0.0 0.0 -0.0023800885444749142 0.00092649683855571105 0.0 0.019539916091139482 0.026556706655902988 0.0 0.0 0.0 0.0 0.023475276711712394 0.068813221078277323 0.0 0.0 0.0 0.0 0.0023800885444749142 -0.00092649683855571105 0.0 -0.019539916091139482 -0.026556706655902988 0.0 0.0 0.0 0.0 -0.023475276711712394 -0.068813221078277323 0.0 </DataArray>
<DataArray Name="radii" format="ascii" type="Float32">1 1 1 1 1 1 1 1 1 1 </DataArray>
</PointData>
<CellData/>
</Piece>
</UnstructuredGrid>
</VTKFile>
