<?xml version="1.0" ?>
<VTKFile byte_order="LittleEndian" type="UnstructuredGrid" version="0.1">
<UnstructuredGrid>
<Piece NumberOfCells="0" NumberOfPoints="374">
<Points>
<DataArray NumberOfComponents="3" format="ascii" type="Float32">8.9378427090065866 1 2 29.704297415648995 1.2688484978696712 2 76.854646616781309 2.7289025795136421 2 79.976663748226898 2.9112929582751144 2 88.537027599590857 3.9519062181252971 2 3.0355906457038286 1 2 34.410562006829643 2.5888481493254152 2 69.128008443590218 1 2 85.695519245714436 1 2 87.069179853161117 10.164199497365017 2 5.424194435623539 8.2450068378243007 2 31.055924509975025 8.7444547314618237 2 74.995117800704804 9.2940640071287426 2 79.489419655226399 6.4463884283635187 2 92.009122337116992 4.7803163663305508 2 5.0862473992707704 6.6250848251266765 2 34.715795557947999 4.3975349548379192 2 69.497552909824037 1.5144631729296441 2 80.963388150391125 6.9431506254785429 2 87.535251529676714 1 2 4.8938482737369959 1.7211427230284351 2 28.267016145699049 1.9929175372115187 2 75.081875240555277 3.2630220187198717 2 77.491180967824874 4.5666514301302934 2 88.770299928752252 9.1202405478983177 2 3.5730504499486142 2.322218230031357 2 37.37699890560134 3.2381209573808971 2 71.467247751933115 4.9334405592264954 2 85.421670669267385 3.2410554005356387 2 85.649117759930803 9.0669480671378899 2 7.2817737603632189 4.3001223120795231 2 27.056799654348648 8.2047266865153023 2 71.685944226875193 10.075404512677283 2 76.143394887135756 5.5466574175030186 2 94.167639574060843 1 2 95.012634311812093 1 2 2.2893659241865403 6.0205195501167186 2 36.107940441073161 7.9279777131218347 2 73.175220260934452 4.3399903737127126 2 80.749605045577439 2.4302828157660459 2 91.26346680789851 2.7121295623387986 2 11.697095968383874 2.3015826069854586 2 31.431089109622935 2.5946200059874838 2 78.234712725688283 2.8782358787100968 2 79.155531009959859 1 2 89.611096110724787 4.0895963589646298 2 1.7612637589516733 2.8754814735880583 2 11.457955633042728 7.7282171803475705 2 33.871743776389295 1 2 68.505318186268653 5.798008408401234 2 68.675182897611435 2.9122362437369094 2 83.743867962092821 2.2447901245086537 2 88.849667072884202 6.2588326694073375 2 7.9227789205654107 9.3128133222721114 2 33.716322641345535 6.2344061422862094 2 73.981913114400442 6.7028861979757028 2 77.490335858000492 10.396206156521526 2 91.825648198834884 8.6498882712775913 2 6.0896337262007858 5.8893501944359254 2 32.756947731348539 4.9449161694079473 2 73.665958616881767 1 2 84.352745220511167 4.1295900340299392 2 89.851251845646956 1.4038128462402897 2 7.5560799817942037 2.3994213739883414 2 26.252141329753567 3.7985644862095662 2 29.304663331944209 7.6509209137654173 2 74.450788880801539 1 2 80.300502283178929 5.4605834847073016 2 94.465723753482266 8.3324506931752076 2 5.0643293869819921 3.9656302272501431 2 36.13971995705554 2.1672080465605359 2 69.881060265361313 8.985492639317572 2 85.451533229484824 7.2406154892911134 2 84.389619532171281 5.5207628338129453 2 8.3479575579506093 7.6103905962486582 2 26.004886337348641 6.9137338754741178 2 73.618680262262117 7.9453676679389211 2 77.427752728012578 7.3682545005352882 2 94.432961592095552 5.6204211505473314 2 95.884060546876142 3.8961609006911759 2 1.113401683973227 7.4878442137440446 2 37.392799917378539 4.8166201445379615 2 72.44009316908793 2.1462278003377886 2 82.963712255267154 2.7227220703979098 2 90.566225465697798 1 2 96.998488029246204 4.4841710965134363 2 9.8485344360052647 1 2 30.060307103178154 2.506746888291731 2 76.371656152312241 1 2 80.792718565745375 4.1386287189208231 2 89.061574912309936 5.2843387406178932 2 1 2.1839356628457756 2 32.196124763762121 1 2 68.232074752091961 2.2517684803635301 2 86.553453311326933 1 2 86.611862452949126 7.8309298184119234 2 6.7973904948419257 7.858861167866535 2 11.734770655434186 3.8751169669980716 2 33.908398920159449 9.2439168207922346 2 74.18319859099347 10.815375231064605 2 78.748362243771567 9.2312991680381007 2 93.329649619870182 6.0879774105469693 2 2.7258731227891104 7.6769069253875903 2 33.845604376582564 3.4493155294265523 2 66.076938942808269 1 2 70.663500053612921 1.9619664163828461 2 81.30355148429129 8.734073514234252 2 88.322963965325258 1 2 6.4587284351309195 1 2 28.858415018646777 3.9134265658380425 2 74.209573909620929 4.0664997269936523 2 79.881220593439366 4.2370263794635514 2 90.838967057113493 10.131869526646328 2 3.7867942249996163 1 2 37.075779185626118 1.7853288896297566 2 71.217706476210353 3.0739680856230964 2 87.171593905343329 3.9749176876922743 2 83.591419596761568 11.370175182408644 2 99.0 2.1766925586900667 2 8.8514725855253644 3.768404740688001 2 29.757131694690568 9.914547784466361 2 69.980090690581875 10.635256259828148 2 76.282859166015115 3.8228467297163027 2 92.401467927276173 1 2 96.434599026479916 2.2372173550215644 2 2.0822171405774519 4.6502427748160269 2 37.212521966120192 9.5531311012438724 2 72.514057829561466 5.5091003656025839 2 80.581727454401829 1 2 92.752382876668918 3.7753343322047446 2 10.005190778356821 3.2185013592061558 2 31.628703479903095 1.8240956935539308 2 77.755349928587549 1 2 79.628795032457262 2.1475850451376051 2 90.576921185216477 5.4111202796026445 2 1.4907720778829181 1 2 11.949029111147457 9.1861386833071865 2 35.550875316389508 1 2 68.837932776273291 4.7198933420942941 2 70.132888161696201 4.1875387190205799 2 81.976095221792107 1 2 87.391001171181102 6.4405951175271809 2 10.041493943667717 10.048333256941763 2 12.696072669737118 1 2 32.638379780770464 7.6336173423103579 2 76.228934264822897 7.0372961874360396 2 79.152560764325614 11.120673123546544 2 90.451052357861343 6.3749515416840907 2 6.5273402544307544 3.7659046034527845 2 31.504998420152372 4.4089873631890137 2 67.222983699735195 2.6555279295697298 2 73.149560450046479 2.8566573314844241 2 84.662873232624875 1.8352283744777054 2 88.213873847264281 2.9120609682363567 2 7.2497173794864018 1 2 27.629943999086979 4.7680535078105528 2 30.697405480791506 5.2986438899498314 2 39.099217930112218 4.1559128113575348 2 75.102992791810593 1.4555656191108639 2 82.904492270598141 6.5563778532840224 2 96.178196400187204 8.3221299062812122 2 2.8345797319188715 4.1381627782685051 2 35.491168047312939 3.5345877026295258 2 38.861498463120746 2.4044485650426863 2 69.918856577935117 6.127363569567799 2 85.301776875514932 4.7022749400606756 2 84.014332333023916 8.0995357186894612 2 8.4658353423630182 5.7651851295675787 2 24.95400354775748 1 2 28.192654658701798 6.4312356885460655 2 71.477916564998566 7.0038526043197198 2 77.944938469407461 6.323003368630979 2 95.357154380315137 2.8864974797917409 2 97.834899438343029 2.4853586437766819 2 1 9.7826560042114039 2 26.223031729188264 2.0014984830478642 2 36.218202105193157 6.0236193559738203 2 71.572086136832382 2.256599268072395 2 82.777921068075571 4.2715916544493888 2 91.451564534442738 1 2 96.596762808568585 6.8044779194571863 2 8.0832126593325277 1 2 31.164638879839803 1 2 77.073059266845846 1 2 79.046754550739124 3.5146196742418749 2 89.499131259303809 2.9380935987761996 2 2.5081828717229411 2.3666350299525356 2 35.162588504511398 2.2060299090019653 2 68.365348724310522 1 2 84.817348519948482 1 2 88.877914588027025 10.688229905158748 2 4.0563482716965202 9.2423278327326965 2 32.430194118346137 9.5057538476929562 2 76.264172495992895 8.9925196169882362 2 80.136461643570101 7.9338937624270915 2 93.321404217909816 4.7433558624386487 2 3.4104381296335982 6.0791227665923682 2 35.079537203044573 5.2389803423392207 2 69.692166048521244 2.5230602216448261 2 82.111685715043734 7.166744285042177 2 87.482794497217029 2.5125485287576299 2 5.7722003386929197 2.2436192145944065 2 27.175875519190413 2.230525784649442 2 74.175355287078062 2.8094504588021563 2 78.951751803143196 5.4590223536103686 2 90.187984102683203 8.4426860711793541 2 3.4568419753067361 3.4812553927848713 2 38.156777017742435 3.8909622626358873 2 70.003245895198276 5.0771026210988941 2 85.645586765939697 2.1922250338898666 2 84.119586435483498 9.6836823871152831 2 7.5830399616423856 5.2811429542073034 2 14.79560950526457 1.9743126720488569 2 28.441073468133943 8.7435206533603882 2 72.089625168072303 8.5756404137874718 2 74.770165656914173 5.0576705481596793 2 93.856808054527988 2.2950621702200205 2 95.009498911976863 2.1352784193401635 2 3.7969308387768539 5.0226044934124863 2 34.405553328865203 7.7570750548022342 2 66.331263302328594 6.0898025678057621 2 71.554756668930665 3.9712041127673339 2 81.873359273620025 2.3258793239348012 2 92.242326904949195 3.1008552170429855 2 10.993259580452756 3.1609431380292587 2 32.769178613583499 2.9439786421264174 2 64.737590368187242 5.1882196435908012 2 77.395140256083749 3.6634730870122549 2 78.454510384030087 1 2 90.772358981102286 3.5142980272836843 2 1 3.5285981438163359 2 10.305955049467801 7.1692490841851182 2 33.013563066509541 1 2 41.584963966796437 5.6304431563084032 2 68.506549501869728 7.0607030290912354 2 68.561582523083061 3.8578937577782662 2 82.546406352986565 1.5621720781715305 2 89.247507210667862 7.3286265582191632 2 6.0856828105687892 9.8831852230593267 2 35.110803594937785 6.5456561933966917 2 75.056738358748987 6.183398534481114 2 75.907977991916837 10.957529719223436 2 93.171765892336964 9.4781388212574669 2 5.8939498948111604 4.9461823027543934 2 33.553721514607183 4.5301790903081045 2 72.777025863906218 1 2 84.542411260054621 2.9905952617847613 2 88.744271159218926 2.1093886804004991 2 8.5178734166863102 2.1877781576406576 2 25.740334832714971 5.2496927344816529 2 30.731027378006551 7.3929644069197993 2 75.296234959246135 2.461558215163687 2 81.290471817614488 5.6363034667569041 2 93.11191156735714 7.5080886242716032 2 4.6549048177845567 4.9513275450758485 2 36.502136755868172 1 2 66.338383518973643 7.9841277047784782 2 70.762207351306643 7.9872751571718759 2 84.160833331111974 6.7925026640767037 2 83.344964613893509 5.3092756465742061 2 9.1503599875253521 6.5645599119715294 2 27.159886629750694 6.5044061745394464 2 73.483836027835835 9.317699807394364 2 77.358556908449955 8.5854400228653791 2 95.530229196478899 5.2191155545250147 2 94.589370248935708 4.1068783518315852 2 1 6.0391215255835196 2 36.401466454889622 4.7234346613463503 2 71.972028034240424 1 2 81.592070892771787 3.0252732916720921 2 90.410464273012281 2.2772986072281549 2 96.888103574582672 3.1076020858918132 2 9.3580921620563959 2.38460719363666 2 28.975737373136607 2.8473317263952227 2 42.74962962803987 1 2 76.497601005531152 2.1619824677708843 2 81.716722933212822 4.0094989841413744 2 87.867076246462176 4.8889796851636653 2 1 1 2 33.274835159197252 2.1290720967409253 2 67.585514464838468 1 2 86.477898302587832 2.8470071186528236 2 87.908397511523816 7.9091043732366346 2 7.011718626140147 6.5733497042113607 2 11.222069267197099 4.7870821126516301 2 35.484930897464793 9.4013542146333826 2 72.697273649529947 11.682364856044209 2 78.878066748428395 7.7020802596797608 2 92.083014978541215 6.1311716265587242 2 3.9878722212679412 7.3967679476720827 2 22.706049920706359 8.4503819194688834 2 32.033471711744966 3.6213339611988853 2 65.251775434311185 2.4689303643031759 2 70.238282906077387 1 2 80.221760720750538 9.7086837664344046 2 89.20112039735794 1 2 5.6434862896971687 1 2 30.472068660551496 3.3143275166305739 2 73.552637510347239 5.4745722099953547 2 78.598692872595976 4.6025868698111765 2 90.232808256379286 11.897002635331637 2 4.5724558134132263 1 2 37.540344940502564 1 2 72.555038117049747 3.6458796483433926 2 86.199938932847047 4.0533107320053752 2 82.31890241729765 10.084266339156933 2 97.583059909952368 1 2 8.0426890010910768 3.4897245065904987 2 27.853604843989604 10.448903704470043 2 70.196181984920315 12.364011823642862 2 75.64387393024225 4.3338375256723056 2 93.3180843735243 1 2 95.878392859188494 1 2 1 4.6821088417120551 2 38.813567600542612 10.571279428338697 2 72.617165246582118 6.9009361563480587 2 79.844675780105604 1 2 93.002078378610406 2.1755676348122313 2 10.401760481213989 2.0140306381499866 2 21.367784209475804 1 2 30.351040927820964 1 2 78.212277545806799 2.1332177412281239 2 81.212052931107564 1 2 90.893277777883242 4.4440711389216094 2 2.3272949064688651 1 2 13.408931153095457 9.9515458242830963 2 34.684230938991213 1 2 40.244243134173885 7.0204262375211162 2 67.412246175850953 4.4020177984391315 2 70.025800463630617 3.3120686744625196 2 83.070997291004588 1 2 86.724940388149193 5.3930764756247545 2 9.6983429539259181 8.4810003128870637 2 13.303090362163076 1.8984836124267899 2 32.274435710332796 5.9448727739479752 2 75.190487079636085 7.7545331264655619 2 81.056560885047261 11.320154519215684 2 91.24968065713972 7.2909666675286537 2 5.4771681066778983 3.1478157397451789 2 30.062909077330648 4.3257454288961847 2 64.562902463309342 1 2 66.152856828902216 2.2744239610120656 2 73.614229444140818 1.9831865749984257 2 83.875492253107979 1 2 86.797752955031058 1.8091492007597485 2 6.7336607814832075 2.4329782541415277 2 26.709859642183964 5.1455726490848237 2 31.282653156289676 6.444427153469289 2 39.799463395428582 4.983443250524533 2 75.587709033276269 1 2 82.157353262819313 5.2946473664913105 2 96.809476506796159 9.9335766515005819 2 4.3115443057867955 2.9675751060907678 2 15.997699503470484 9.8607618322236998 2 36.380894873263898 3.4292305306179984 2 37.875048455900419 2.4764956150621114 2 69.665171785228011 7.2601020559685221 2 85.743766512903917 5.9825139991695959 2 82.689511065223925 8.4392808099348962 2 9.1519549623557968 4.8398982823315846 2 25.313628367187633 2.281314977601332 2 29.553070137604255 6.1297507040758727 2 71.130468737230103 5.9604683072040761 2 77.083096983039027 5.563114828751643 2 93.993168509219103 3.350421004738926 2 97.918727767497728 3.8267928986490416 2 2.3051821499531973 9.0340462740158998 2 26.781869229715422 1 2 37.069686553682615 6.4694118210463651 2 62.295567856662657 2.5916290325803479 2 71.088365152525242 1 2 83.410620901623389 3.5867159477715869 2 91.904800882242014 1.9063813505955751 2 96.94470790542627 5.5428597361080048 2 </DataArray>
</Points>
<Cells>
<DataArray Name="connectivity" format="ascii" type="Int32">0</DataArray>
<DataArray Name="offsets" format="ascii" type="Int32">0</DataArray>
<DataArray Name="types" format="ascii" type="UInt8">1</DataArray>
</Cells>
<PointData>
<DataArray Name="Points" NumberOfComponents="3" format="ascii" type="Float32">8.9378427090065866 1 2 29.704297415648995 1.2688484978696712 2 76.854646616781309 2.7289025795136421 2 79.976663748226898 2.9112929582751144 2 88.537027599590857 3.9519062181252971 2 3.0355906457038286 1 2 34.410562006829643 2.5888481493254152 2 69.128008443590218 1 2 85.695519245714436 1 2 87.069179853161117 10.164199497365017 2 5.424194435623539 8.2450068378243007 2 31.055924509975025 8.7444547314618237 2 74.995117800704804 9.2940640071287426 2 79.489419655226399 6.4463884283635187 2 92.009122337116992 4.7803163663305508 2 5.0862473992707704 6.6250848251266765 2 34.715795557947999 4.3975349548379192 2 69.497552909824037 1.5144631729296441 2 80.963388150391125 6.9431506254785429 2 87.535251529676714 1 2 4.8938482737369959 1.7211427230284351 2 28.267016145699049 1.9929175372115187 2 75.081875240555277 3.2630220187198717 2 77.491180967824874 4.5666514301302934 2 88.770299928752252 9.1202405478983177 2 3.5730504499486142 2.322218230031357 2 37.37699890560134 3.2381209573808971 2 71.467247751933115 4.9334405592264954 2 85.421670669267385 3.2410554005356387 2 85.649117759930803 9.0669480671378899 2 7.2817737603632189 4.3001223120795231 2 27.056799654348648 8.2047266865153023 2 71.685944226875193 10.075404512677283 2 76.143394887135756 5.5466574175030186 2 94.167639574060843 1 2 95.012634311812093 1 2 2.2893659241865403 6.0205195501167186 2 36.107940441073161 7.9279777131218347 2 73.175220260934452 4.3399903737127126 2 80.749605045577439 2.4302828157660459 2 91.26346680789851 2.7121295623387986 2 11.697095968383874 2.3015826069854586 2 31.431089109622935 2.5946200059874838 2 78.234712725688283 2.8782358787100968 2 79.155531009959859 1 2 89.611096110724787 4.0895963589646298 2 1.7612637589516733 2.8754814735880583 2 11.457955633042728 7.7282171803475705 2 33.871743776389295 1 2 68.505318186268653 5.798008408401234 2 68.675182897611435 2.9122362437369094 2 83.743867962092821 2.2447901245086537 2 88.849667072884202 6.2588326694073375 2 7.9227789205654107 9.3128133222721114 2 33.716322641345535 6.2344061422862094 2 73.981913114400442 6.7028861979757028 2 77.490335858000492 10.396206156521526 2 91.825648198834884 8.6498882712775913 2 6.0896337262007858 5.8893501944359254 2 32.756947731348539 4.9449161694079473 2 73.665958616881767 1 2 84.352745220511167 4.1295900340299392 2 89.851251845646956 1.4038128462402897 2 7.5560799817942037 2.3994213739883414 2 26.252141329753567 3.7985644862095662 2 29.304663331944209 7.6509209137654173 2 74.450788880801539 1 2 80.300502283178929 5.4605834847073016 2 94.465723753482266 8.3324506931752076 2 5.0643293869819921 3.9656302272501431 2 36.13971995705554 2.1672080465605359 2 69.881060265361313 8.985492639317572 2 85.451533229484824 7.2406154892911134 2 84.389619532171281 5.5207628338129453 2 8.3479575579506093 7.6103905962486582 2 26.004886337348641 6.9137338754741178 2 73.618680262262117 7.9453676679389211 2 77.427752728012578 7.3682545005352882 2 94.432961592095552 5.6204211505473314 2 95.884060546876142 3.8961609006911759 2 1.113401683973227 7.4878442137440446 2 37.392799917378539 4.8166201445379615 2 72.44009316908793 2.1462278003377886 2 82.963712255267154 2.7227220703979098 2 90.566225465697798 1 2 96.998488029246204 4.4841710965134363 2 9.8485344360052647 1 2 30.060307103178154 2.506746888291731 2 76.371656152312241 1 2 80.792718565745375 4.1386287189208231 2 89.061574912309936 5.2843387406178932 2 1 2.1839356628457756 2 32.196124763762121 1 2 68.232074752091961 2.2517684803635301 2 86.553453311326933 1 2 86.611862452949126 7.8309298184119234 2 6.7973904948419257 7.858861167866535 2 11.734770655434186 3.8751169669980716 2 33.908398920159449 9.2439168207922346 2 74.18319859099347 10.815375231064605 2 78.748362243771567 9.2312991680381007 2 93.329649619870182 6.0879774105469693 2 2.7258731227891104 7.6769069253875903 2 33.845604376582564 3.4493155294265523 2 66.076938942808269 1 2 70.663500053612921 1.9619664163828461 2 81.30355148429129 8.734073514234252 2 88.322963965325258 1 2 6.4587284351309195 1 2 28.858415018646777 3.9134265658380425 2 74.209573909620929 4.0664997269936523 2 79.881220593439366 4.2370263794635514 2 90.838967057113493 10.131869526646328 2 3.7867942249996163 1 2 37.075779185626118 1.7853288896297566 2 71.217706476210353 3.0739680856230964 2 87.171593905343329 3.9749176876922743 2 83.591419596761568 11.370175182408644 2 99.0 2.1766925586900667 2 8.8514725855253644 3.768404740688001 2 29.757131694690568 9.914547784466361 2 69.980090690581875 10.635256259828148 2 76.282859166015115 3.8228467297163027 2 92.401467927276173 1 2 96.434599026479916 2.2372173550215644 2 2.0822171405774519 4.6502427748160269 2 37.212521966120192 9.5531311012438724 2 72.514057829561466 5.5091003656025839 2 80.581727454401829 1 2 92.752382876668918 3.7753343322047446 2 10.005190778356821 3.2185013592061558 2 31.628703479903095 1.8240956935539308 2 77.755349928587549 1 2 79.628795032457262 2.1475850451376051 2 90.576921185216477 5.4111202796026445 2 1.4907720778829181 1 2 11.949029111147457 9.1861386833071865 2 35.550875316389508 1 2 68.837932776273291 4.7198933420942941 2 70.132888161696201 4.1875387190205799 2 81.976095221792107 1 2 87.391001171181102 6.4405951175271809 2 10.041493943667717 10.048333256941763 2 12.696072669737118 1 2 32.638379780770464 7.6336173423103579 2 76.228934264822897 7.0372961874360396 2 79.152560764325614 11.120673123546544 2 90.451052357861343 6.3749515416840907 2 6.5273402544307544 3.7659046034527845 2 31.504998420152372 4.4089873631890137 2 67.222983699735195 2.6555279295697298 2 73.149560450046479 2.8566573314844241 2 84.662873232624875 1.8352283744777054 2 88.213873847264281 2.9120609682363567 2 7.2497173794864018 1 2 27.629943999086979 4.7680535078105528 2 30.697405480791506 5.2986438899498314 2 39.099217930112218 4.1559128113575348 2 75.102992791810593 1.4555656191108639 2 82.904492270598141 6.5563778532840224 2 96.178196400187204 8.3221299062812122 2 2.8345797319188715 4.1381627782685051 2 35.491168047312939 3.5345877026295258 2 38.861498463120746 2.4044485650426863 2 69.918856577935117 6.127363569567799 2 85.301776875514932 4.7022749400606756 2 84.014332333023916 8.0995357186894612 2 8.4658353423630182 5.7651851295675787 2 24.95400354775748 1 2 28.192654658701798 6.4312356885460655 2 71.477916564998566 7.0038526043197198 2 77.944938469407461 6.323003368630979 2 95.357154380315137 2.8864974797917409 2 97.834899438343029 2.4853586437766819 2 1 9.7826560042114039 2 26.223031729188264 2.0014984830478642 2 36.218202105193157 6.0236193559738203 2 71.572086136832382 2.256599268072395 2 82.777921068075571 4.2715916544493888 2 91.451564534442738 1 2 96.596762808568585 6.8044779194571863 2 8.0832126593325277 1 2 31.164638879839803 1 2 77.073059266845846 1 2 79.046754550739124 3.5146196742418749 2 89.499131259303809 2.9380935987761996 2 2.5081828717229411 2.3666350299525356 2 35.162588504511398 2.2060299090019653 2 68.365348724310522 1 2 84.817348519948482 1 2 88.877914588027025 10.688229905158748 2 4.0563482716965202 9.2423278327326965 2 32.430194118346137 9.5057538476929562 2 76.264172495992895 8.9925196169882362 2 80.136461643570101 7.9338937624270915 2 93.321404217909816 4.7433558624386487 2 3.4104381296335982 6.0791227665923682 2 35.079537203044573 5.2389803423392207 2 69.692166048521244 2.5230602216448261 2 82.111685715043734 7.166744285042177 2 87.482794497217029 2.5125485287576299 2 5.7722003386929197 2.2436192145944065 2 27.175875519190413 2.230525784649442 2 74.175355287078062 2.8094504588021563 2 78.951751803143196 5.4590223536103686 2 90.187984102683203 8.4426860711793541 2 3.4568419753067361 3.4812553927848713 2 38.156777017742435 3.8909622626358873 2 70.003245895198276 5.0771026210988941 2 85.645586765939697 2.1922250338898666 2 84.119586435483498 9.6836823871152831 2 7.5830399616423856 5.2811429542073034 2 14.79560950526457 1.9743126720488569 2 28.441073468133943 8.7435206533603882 2 72.089625168072303 8.5756404137874718 2 74.770165656914173 5.0576705481596793 2 93.856808054527988 2.2950621702200205 2 95.009498911976863 2.1352784193401635 2 3.7969308387768539 5.0226044934124863 2 34.405553328865203 7.7570750548022342 2 66.331263302328594 6.0898025678057621 2 71.554756668930665 3.9712041127673339 2 81.873359273620025 2.3258793239348012 2 92.242326904949195 3.1008552170429855 2 10.993259580452756 3.1609431380292587 2 32.769178613583499 2.9439786421264174 2 64.737590368187242 5.1882196435908012 2 77.395140256083749 3.6634730870122549 2 78.454510384030087 1 2 90.772358981102286 3.5142980272836843 2 1 3.5285981438163359 2 10.305955049467801 7.1692490841851182 2 33.013563066509541 1 2 41.584963966796437 5.6304431563084032 2 68.506549501869728 7.0607030290912354 2 68.561582523083061 3.8578937577782662 2 82.546406352986565 1.5621720781715305 2 89.247507210667862 7.3286265582191632 2 6.0856828105687892 9.8831852230593267 2 35.110803594937785 6.5456561933966917 2 75.056738358748987 6.183398534481114 2 75.907977991916837 10.957529719223436 2 93.171765892336964 9.4781388212574669 2 5.8939498948111604 4.9461823027543934 2 33.553721514607183 4.5301790903081045 2 72.777025863906218 1 2 84.542411260054621 2.9905952617847613 2 88.744271159218926 2.1093886804004991 2 8.5178734166863102 2.1877781576406576 2 25.740334832714971 5.2496927344816529 2 30.731027378006551 7.3929644069197993 2 75.296234959246135 2.461558215163687 2 81.290471817614488 5.6363034667569041 2 93.11191156735714 7.5080886242716032 2 4.6549048177845567 4.9513275450758485 2 36.502136755868172 1 2 66.338383518973643 7.9841277047784782 2 70.762207351306643 7.9872751571718759 2 84.160833331111974 6.7925026640767037 2 83.344964613893509 5.3092756465742061 2 9.1503599875253521 6.5645599119715294 2 27.159886629750694 6.5044061745394464 2 73.483836027835835 9.317699807394364 2 77.358556908449955 8.5854400228653791 2 95.530229196478899 5.2191155545250147 2 94.589370248935708 4.1068783518315852 2 1 6.0391215255835196 2 36.401466454889622 4.7234346613463503 2 71.972028034240424 1 2 81.592070892771787 3.0252732916720921 2 90.410464273012281 2.2772986072281549 2 96.888103574582672 3.1076020858918132 2 9.3580921620563959 2.38460719363666 2 28.975737373136607 2.8473317263952227 2 42.74962962803987 1 2 76.497601005531152 2.1619824677708843 2 81.716722933212822 4.0094989841413744 2 87.867076246462176 4.8889796851636653 2 1 1 2 33.274835159197252 2.1290720967409253 2 67.585514464838468 1 2 86.477898302587832 2.8470071186528236 2 87.908397511523816 7.9091043732366346 2 7.011718626140147 6.5733497042113607 2 11.222069267197099 4.7870821126516301 2 35.484930897464793 9.4013542146333826 2 72.697273649529947 11.682364856044209 2 78.878066748428395 7.7020802596797608 2 92.083014978541215 6.1311716265587242 2 3.9878722212679412 7.3967679476720827 2 22.706049920706359 8.4503819194688834 2 32.033471711744966 3.6213339611988853 2 65.251775434311185 2.4689303643031759 2 70.238282906077387 1 2 80.221760720750538 9.7086837664344046 2 89.20112039735794 1 2 5.6434862896971687 1 2 30.472068660551496 3.3143275166305739 2 73.552637510347239 5.4745722099953547 2 78.598692872595976 4.6025868698111765 2 90.232808256379286 11.897002635331637 2 4.5724558134132263 1 2 37.540344940502564 1 2 72.555038117049747 3.6458796483433926 2 86.199938932847047 4.0533107320053752 2 82.31890241729765 10.084266339156933 2 97.583059909952368 1 2 8.0426890010910768 3.4897245065904987 2 27.853604843989604 10.448903704470043 2 70.196181984920315 12.364011823642862 2 75.64387393024225 4.3338375256723056 2 93.3180843735243 1 2 95.878392859188494 1 2 1 4.6821088417120551 2 38.813567600542612 10.571279428338697 2 72.617165246582118 6.9009361563480587 2 79.844675780105604 1 2 93.002078378610406 2.1755676348122313 2 10.401760481213989 2.0140306381499866 2 21.367784209475804 1 2 30.351040927820964 1 2 78.212277545806799 2.1332177412281239 2 81.212052931107564 1 2 90.893277777883242 4.4440711389216094 2 2.3272949064688651 1 2 13.408931153095457 9.9515458242830963 2 34.684230938991213 1 2 40.244243134173885 7.0204262375211162 2 67.412246175850953 4.4020177984391315 2 70.025800463630617 3.3120686744625196 2 83.070997291004588 1 2 86.724940388149193 5.3930764756247545 2 9.6983429539259181 8.4810003128870637 2 13.303090362163076 1.8984836124267899 2 32.274435710332796 5.9448727739479752 2 75.190487079636085 7.7545331264655619 2 81.056560885047261 11.320154519215684 2 91.24968065713972 7.2909666675286537 2 5.4771681066778983 3.1478157397451789 2 30.062909077330648 4.3257454288961847 2 64.562902463309342 1 2 66.152856828902216 2.2744239610120656 2 73.614229444140818 1.9831865749984257 2 83.875492253107979 1 2 86.797752955031058 1.8091492007597485 2 6.7336607814832075 2.4329782541415277 2 26.709859642183964 5.1455726490848237 2 31.282653156289676 6.444427153469289 2 39.799463395428582 4.983443250524533 2 75.587709033276269 1 2 82.157353262819313 5.2946473664913105 2 96.809476506796159 9.9335766515005819 2 4.3115443057867955 2.9675751060907678 2 15.997699503470484 9.8607618322236998 2 36.380894873263898 3.4292305306179984 2 37.875048455900419 2.4764956150621114 2 69.665171785228011 7.2601020559685221 2 85.743766512903917 5.9825139991695959 2 82.689511065223925 8.4392808099348962 2 9.1519549623557968 4.8398982823315846 2 25.313628367187633 2.281314977601332 2 29.553070137604255 6.1297507040758727 2 71.130468737230103 5.9604683072040761 2 77.083096983039027 5.563114828751643 2 93.993168509219103 3.350421004738926 2 97.918727767497728 3.8267928986490416 2 2.3051821499531973 9.0340462740158998 2 26.781869229715422 1 2 37.069686553682615 6.4694118210463651 2 62.295567856662657 2.5916290325803479 2 71.088365152525242 1 2 83.410620901623389 3.5867159477715869 2 91.904800882242014 1.9063813505955751 2 96.94470790542627 5.5428597361080048 2 </DataArray>