<?xml version="1.0" ?>
<VTKFile byte_order="LittleEndian" type="UnstructuredGrid" version="0.1">
<UnstructuredGrid>
<Piece NumberOfCells="0" NumberOfPoints="238">
<Points>
<DataArray NumberOfComponents="3" format="ascii" type="Float32">0 0 0 11.980570352357795 1.2 2 24.105000569222423 1 2 24.897421186298697 8.4511495360653992 2 38.15563620651659 7.6501307674107251 2 42.082007495784822 1 2 62.263510053651935 4.1226829228650255 2 66.117571409992777 3.2949926327616041 2 95.795153522922959 7.3613927895074696 2 10.974421827839524 5.9569490187854353 2 16.412534068039818 6.889971289598285 2 28.86682569037519 1.2 2 42.477884032520954 2.3660368997819314 2 42.125988927675841 7.3714151557079965 2 63.982158352028875 7.8633504741967508 2 67.610525385571421 9.6275295357209512 2 98.6 7.2657930889126714 2 12.899230093618613 2.6963411507585668 2 15.187335890872935 3.6511690471558129 2 23.730272495541627 4.3684634016763297 2 38.810488157878204 1 2 44.306492677248215 2.5608821074592778 2 58.966302994023053 1.9075799184888962 2 66.34793053011785 1.4 2 99.0 9.4367515269232527 2 14.937741302051016 5.569804499006322 2 24.025706031129666 10.065844253532838 2 28.024638235901925 4.6417955023849355 2 39.746291617404957 1.4 2 63.913435863457032 2.8079114114256996 2 65.040202409786744 1 2 96.911865104801848 1.2 2 20.766439885646946 1.8235436832105503 2 26.302667209604554 3.0634102097753462 2 40.622082131465817 2.6967830989924426 2 62.038703014535344 1 2 13.482996517854232 4.186098850677678 2 38.663705624635838 5.3340778473216881 2 43.20320726082911 2.6022676019397699 2 65.378650061318723 7.468132874865999 2 99.0 4.9294765720065259 2 11.259184925862725 5.0029168944709301 2 15.995536730917397 3.1474851171879785 2 24.918776203116106 2.8993163387594114 2 45.734015241015911 4.4693355034473123 2 15.907723045678408 1.4 2 22.799351621491013 2.5141210195374888 2 28.028220470528726 3.7824308962672037 2 39.280579526275908 7.0025147932603851 2 64.894206678746286 5.5394448382265837 2 66.593774961981197 5.7035228247956899 2 99.0 3.1136637844140322 2 23.046258653117398 1.2 2 43.063090802894529 1 2 64.105119587247302 4.047419923173357 2 19.162131915661597 3.5460103912447685 2 41.29544011545191 6.5406499146906629 2 41.014401379194098 10.262673499987782 2 99.0 6.393051285755269 2 12.467843053313279 1 2 14.983842557607094 2.7781796022940863 2 24.136368364357498 5.6313471033429003 2 46.566144959624516 1 2 14.063059032251415 7.5816291581120812 2 24.5345549480847 6.8477217191030002 2 62.311870234554476 2.348167946994165 2 65.030265603240252 3.7318839163640436 2 20.395420655082759 2.7959687452867517 2 39.574734378762479 3.0602126147035058 2 61.166847909284819 1.4 2 13.041006402509113 5.8119930937213553 2 17.434981541274958 8.7198641714784877 2 40.248992801821551 1 2 44.045995648139197 5.3750874934728063 2 61.234833105853163 6.8571064526084431 2 66.42306130751092 9.2827552044680672 2 99.0 1 2 18.035610309208007 1.9748058263602122 2 25.070467689415672 1 2 57.081811678317735 3.2511407717383087 2 58.9881203171172 1 2 15.368206336557323 1 2 21.580771820414839 6.1057627710584406 2 26.896447817224676 1 2 40.676192285134881 5.8363269042624815 2 64.557596101642986 3.140819225585719 2 67.920493746395721 8.5990455044316825 2 23.671758221187098 2.8878246100864131 2 41.119989418923019 1 2 61.196300809084015 4.3006956633880247 2 18.795005795472814 4.667573368533886 2 41.204779678509723 3.4421322924127993 2 64.238505526795834 6.0249296058223534 2 16.408078920477134 5.0400891449298451 2 45.601698747708461 3.2069162598747347 2 60.445333262728816 7.1582703889106387 2 56.890484050677145 1 2 15.195763446836036 7.3595972311221711 2 23.321764785357313 6.7393403184287966 2 63.749779515846633 1.2 2 21.103793072049278 1 2 40.672175922183264 1.4 2 62.475299902533081 1 2 13.859400449321109 5.0369136321256009 2 18.959555939817658 6.9981209244697373 2 42.76775933858228 4.0547634386906086 2 45.466568449426305 1.981124419692645 2 67.290674625797678 7.7514541762083624 2 16.763666926378232 2.8745348928182635 2 61.205059310431842 5.6689373321414047 2 16.373752796233688 1 2 22.462979500767123 1.4 2 39.03393993981291 8.3531230825537701 2 65.787932862674452 5.0224082884462256 2 22.157246521162978 1 2 44.378830848674902 1.4 2 63.231243619994274 4.4822975210257834 2 20.786885357552393 3.6470691183908683 2 41.795835033227348 4.3338036306581129 2 40.513776473322459 7.4781069592585352 2 65.548683560083717 10.68882171126746 2 14.217145246428403 2.8768958367547688 2 43.370830086439156 1.4 2 22.964157652671137 5.8483464746157585 2 63.346323275459731 1 2 18.544139001867045 1 2 59.855014602354643 1 2 14.737370837604237 10.906833814457908 2 42.862892647373329 6.5758122573819922 2 62.690739534200873 6.7612713304824315 2 67.440517503488181 11.332802560863573 2 99.0 1 2 19.089734136679574 1.2 2 59.997401740889622 4.0257493811863068 2 61.615354197857265 3.3078962795197828 2 13.83760596455131 1 2 20.270933371807335 7.9446712015438035 2 40.75207677687208 4.4240622040142723 2 63.531672493134948 3.5173081749811819 2 42.572668793823965 1 2 62.858278566758599 3.7042296476931691 2 17.894665905158309 6.2972109332274036 2 41.497529258979043 2.630747205297097 2 41.653953242736847 8.5809533358124206 2 63.729486192437335 6.9860042309904573 2 14.466891943559377 4.0740864423922147 2 46.317621678381833 3.894956672919013 2 57.720564206141376 1 2 14.029394860821226 6.2616533324038759 2 22.06023591732216 10.594955182874807 2 22.043504858522187 2.5300727971126209 2 61.603012866053284 1.2 2 21.086170230920487 8.9396738563107618 2 42.188335396758788 3.2778415271595573 2 65.213151107841895 8.4566105127386244 2 44.63269549350764 3.6030999918803031 2 60.620081229505992 5.0483401170834377 2 22.304996694722476 4.7991084856154265 2 43.87727956202842 1.2 2 18.536400370729318 3.2993980257255102 2 40.369733536663134 8.5295784055387482 2 57.998908177238029 1.8466451082563959 2 62.498085070626828 2.9683440711489641 2 19.627511705604032 2.5584540953183184 2 60.278896286874996 1.2 2 17.624433430168921 10.180877810217329 2 45.564470410209758 6.0272256340002635 2 62.010659688928648 8.3181421427024702 2 19.03041534312748 2.1509465484223935 2 58.064082982232485 2.7797412083901163 2 60.694652134623972 1.4 2 20.219818814056683 5.2384709542782506 2 59.821397804227473 3.0886126999455263 2 18.053467406016491 4.7734988828865843 2 64.917939636597382 6.5958319387889564 2 15.324978717938549 4.7137913528796336 2 43.982358261878638 6.5864706034354139 2 20.554129482479201 1 2 63.014507178715306 1.9514182046772528 2 19.601090255790997 6.2254066725984263 2 43.591132568492782 4.1566422333260187 2 46.118725971624556 1 2 61.399846968463471 9.1768475337083331 2 17.889940357452367 3.9505739174684003 2 62.447719494422813 5.320536197533821 2 17.420237323979769 1.2 2 46.868042091847052 5.2115012959106428 2 45.672084383267666 1 2 63.535993359882326 5.3512144303013214 2 21.765680110191294 3.7426813128125076 2 41.867401072321336 5.7841242095098586 2 64.830628573807147 9.2965369169041665 2 43.68583153281137 3.2171203513006006 2 22.912943623129053 3.7700831065472111 2 16.850374044251435 1.4 2 59.430731845374559 1 2 43.127903174870305 5.5374966787718476 2 46.791967845984615 1.5828572442849689 2 62.999956225502011 5.9152283708006133 2 20.071757050865639 1 2 58.370076051202112 4.2718980345186379 2 60.75432148161736 2.795943568879637 2 21.674600119765767 7.2072796851361236 2 58.165850455974002 1 2 18.758745658388502 8.0312791883638237 2 46.438920109331761 2.2037390433719621 2 44.750174156042185 5.9332277370146835 2 59.144247598409414 3.9801200656534217 2 60.165498494330826 5.5885873892750224 2 61.823740993174852 6.317252342755352 2 58.618900505374668 2.4488690162041564 2 19.541303171491389 4.9643566600881721 2 16.828558669810342 3.7631655752341846 2 45.428345529527967 3.9138295499595612 2 60.804431342864014 7.9979653448109227 2 45.930253216448072 6.8924228605086144 2 17.519769611479987 7.4086554449873079 2 45.87563721652414 2.5799230176124262 2 47.480217673954165 4.6874859350382492 2 17.97096424875204 1 2 57.43616785519437 2.6318972677087777 2 60.688544223755962 3.7007063874038222 2 44.46881724465505 4.5255298821692742 2 59.587360443835983 4.717940316238364 2 17.416332186428978 2.7044647144247738 2 58.572380240694535 1 2 46.609727045916657 6.0239317811882209 2 63.219108784235516 8.591061739348449 2 58.651775092449789 3.4376374820147122 2 21.058036538683602 5.2167968819137984 2 18.585235409587845 5.7531995542672743 2 45.056402263862161 7.0850710306059801 2 45.061148530837883 2.6274162955837292 2 46.077491317763894 5.1516848333929621 2 44.721926573602104 1 2 59.820568076133547 2.3560172391395882 2 47.103771953545206 1 2 57.814663233964779 3.664491070065266 2 </DataArray>
</Points>
<Cells>
<DataArray Name="connectivity" format="ascii" type="Int32">0</DataArray>
<DataArray Name="offsets" format="ascii" type="Int32">0</DataArray>
<DataArray Name="types" format="ascii" type="UInt8">1</DataArray>
</Cells>
<PointData>
<DataArray Name="Points" NumberOfComponents="3" format="ascii" type="Float32">0 0 0 11.980570352357795 1.2 2 24.105000569222423 1 2 24.897421186298697 8.4511495360653992 2 38.15563620651659 7.6501307674107251 2 42.082007495784822 1 2 62.263510053651935 4.1226829228650255 2 66.117571409992777 3.2949926327616041 2 95.795153522922959 7.3613927895074696 2 10.974421827839524 5.9569490187854353 2 16.412534068039818 6.889971289598285 2 28.86682569037519 1.2 2 42.477884032520954 2.3660368997819314 2 42.125988927675841 7.3714151557079965 2 63.982158352028875 7.8633504741967508 2 67.610525385571421 9.6275295357209512 2 98.6 7.2657930889126714 2 12.899230093618613 2.6963411507585668 2 15.187335890872935 3.6511690471558129 2 23.730272495541627 4.3684634016763297 2 38.810488157878204 1 2 44.306492677248215 2.5608821074592778 2 58.966302994023053 1.9075799184888962 2 66.34793053011785 1.4 2 99.0 9.4367515269232527 2 14.937741302051016 5.569804499006322 2 24.025706031129666 10.065844253532838 2 28.024638235901925 4.6417955023849355 2 39.746291617404957 1.4 2 63.913435863457032 2.8079114114256996 2 65.040202409786744 1 2 96.911865104801848 1.2 2 20.766439885646946 1.8235436832105503 2 26.302667209604554 3.0634102097753462 2 40.622082131465817 2.6967830989924426 2 62.038703014535344 1 2 13.482996517854232 4.186098850677678 2 38.663705624635838 5.3340778473216881 2 43.20320726082911 2.6022676019397699 2 65.378650061318723 7.468132874865999 2 99.0 4.9294765720065259 2 11.259184925862725 5.0029168944709301 2 15.995536730917397 3.1474851171879785 2 24.918776203116106 2.8993163387594114 2 45.734015241015911 4.4693355034473123 2 15.907723045678408 1.4 2 22.799351621491013 2.5141210195374888 2 28.028220470528726 3.7824308962672037 2 39.280579526275908 7.0025147932603851 2 64.894206678746286 5.5394448382265837 2 66.593774961981197 5.7035228247956899 2 99.0 3.1136637844140322 2 23.046258653117398 1.2 2 43.063090802894529 1 2 64.105119587247302 4.047419923173357 2 19.162131915661597 3.5460103912447685 2 41.29544011545191 6.5406499146906629 2 41.014401379194098 10.262673499987782 2 99.0 6.393051285755269 2 12.467843053313279 1 2 14.983842557607094 2.7781796022940863 2 24.136368364357498 5.6313471033429003 2 46.566144959624516 1 2 14.063059032251415 7.5816291581120812 2 24.5345549480847 6.8477217191030002 2 62.311870234554476 2.348167946994165 2 65.030265603240252 3.7318839163640436 2 20.395420655082759 2.7959687452867517 2 39.574734378762479 3.0602126147035058 2 61.166847909284819 1.4 2 13.041006402509113 5.8119930937213553 2 17.434981541274958 8.7198641714784877 2 40.248992801821551 1 2 44.045995648139197 5.3750874934728063 2 61.234833105853163 6.8571064526084431 2 66.42306130751092 9.2827552044680672 2 99.0 1 2 18.035610309208007 1.9748058263602122 2 25.070467689415672 1 2 57.081811678317735 3.2511407717383087 2 58.9881203171172 1 2 15.368206336557323 1 2 21.580771820414839 6.1057627710584406 2 26.896447817224676 1 2 40.676192285134881 5.8363269042624815 2 64.557596101642986 3.140819225585719 2 67.920493746395721 8.5990455044316825 2 23.671758221187098 2.8878246100864131 2 41.119989418923019 1 2 61.196300809084015 4.3006956633880247 2 18.795005795472814 4.667573368533886 2 41.204779678509723 3.4421322924127993 2 64.238505526795834 6.0249296058223534 2 16.408078920477134 5.0400891449298451 2 45.601698747708461 3.2069162598747347 2 60.445333262728816 7.1582703889106387 2 56.890484050677145 1 2 15.195763446836036 7.3595972311221711 2 23.321764785357313 6.7393403184287966 2 63.749779515846633 1.2 2 21.103793072049278 1 2 40.672175922183264 1.4 2 62.475299902533081 1 2 13.859400449321109 5.0369136321256009 2 18.959555939817658 6.9981209244697373 2 42.76775933858228 4.0547634386906086 2 45.466568449426305 1.981124419692645 2 67.290674625797678 7.7514541762083624 2 16.763666926378232 2.8745348928182635 2 61.205059310431842 5.6689373321414047 2 16.373752796233688 1 2 22.462979500767123 1.4 2 39.03393993981291 8.3531230825537701 2 65.787932862674452 5.0224082884462256 2 22.157246521162978 1 2 44.378830848674902 1.4 2 63.231243619994274 4.4822975210257834 2 20.786885357552393 3.6470691183908683 2 41.795835033227348 4.3338036306581129 2 40.513776473322459 7.4781069592585352 2 65.548683560083717 10.68882171126746 2 14.217145246428403 2.8768958367547688 2 43.370830086439156 1.4 2 22.964157652671137 5.8483464746157585 2 63.346323275459731 1 2 18.544139001867045 1 2 59.855014602354643 1 2 14.737370837604237 10.906833814457908 2 42.862892647373329 6.5758122573819922 2 62.690739534200873 6.7612713304824315 2 67.440517503488181 11.332802560863573 2 99.0 1 2 19.089734136679574 1.2 2 59.997401740889622 4.0257493811863068 2 61.615354197857265 3.3078962795197828 2 13.83760596455131 1 2 20.270933371807335 7.9446712015438035 2 40.75207677687208 4.4240622040142723 2 63.531672493134948 3.5173081749811819 2 42.572668793823965 1 2 62.858278566758599 3.7042296476931691 2 17.894665905158309 6.2972109332274036 2 41.497529258979043 2.630747205297097 2 41.653953242736847 8.5809533358124206 2 63.729486192437335 6.9860042309904573 2 14.466891943559377 4.0740864423922147 2 46.317621678381833 3.894956672919013 2 57.720564206141376 1 2 14.029394860821226 6.2616533324038759 2 22.06023591732216 10.594955182874807 2 22.043504858522187 2.5300727971126209 2 61.603012866053284 1.2 2 21.086170230920487 8.9396738563107618 2 42.188335396758788 3.2778415271595573 2 65.213151107841895 8.4566105127386244 2 44.63269549350764 3.6030999918803031 2 60.620081229505992 5.0483401170834377 2 22.304996694722476 4.7991084856154265 2 43.87727956202842 1.2 2 18.536400370729318 3.2993980257255102 2 40.369733536663134 8.5295784055387482 2 57.998908177238029 1.8466451082563959 2 62.498085070626828 2.9683440711489641 2 19.627511705604032 2.5584540953183184 2 60.278896286874996 1.2 2 17.624433430168921 10.180877810217329 2 45.564470410209758 6.0272256340002635 2 62.010659688928648 8.3181421427024702 2 19.03041534312748 2.1509465484223935 2 58.064082982232485 2.7797412083901163 2 60.694652134623972 1.4 2 20.219818814056683 5.2384709542782506 2 59.821397804227473 3.0886126999455263 2 18.053467406016491 4.7734988828865843 2 64.917939636597382 6.5958319387889564 2 15.324978717938549 4.7137913528796336 2 43.982358261878638 6.5864706034354139 2 20.554129482479201 1 2 63.014507178715306 1.9514182046772528 2 19.601090255790997 6.2254066725984263 2 43.591132568492782 4.1566422333260187 2 46.118725971624556 1 2 61.399846968463471 9.1768475337083331 2 17.889940357452367 3.9505739174684003 2 62.447719494422813 5.320536197533821 2 17.420237323979769 1.2 2 46.868042091847052 5.2115012959106428 2 45.672084383267666 1 2 63.535993359882326 5.3512144303013214 2 21.765680110191294 3.7426813128125076 2 41.867401072321336 5.7841242095098586 2 64.830628573807147 9.2965369169041665 2 43.68583153281137 3.2171203513006006 2 22.912943623129053 3.7700831065472111 2 16.850374044251435 1.4 2 59.430731845374559 1 2 43.127903174870305 5.5374966787718476 2 46.791967845984615 1.5828572442849689 2 62.999956225502011 5.9152283708006133 2 20.071757050865639 1 2 58.370076051202112 4.2718980345186379 2 60.75432148161736 2.795943568879637 2 21.674600119765767 7.2072796851361236 2 58.165850455974002 1 2 18.758745658388502 8.0312791883638237 2 46.438920109331761 2.2037390433719621 2 44.750174156042185 5.9332277370146835 2 59.144247598409414 3.9801200656534217 2 60.165498494330826 5.5885873892750224 2 61.823740993174852 6.317252342755352 2 58.618900505374668 2.4488690162041564 2 19.541303171491389 4.9643566600881721 2 16.828558669810342 3.7631655752341846 2 45.428345529527967 3.9138295499595612 2 60.804431342864014 7.9979653448109227 2 45.930253216448072 6.8924228605086144 2 17.519769611479987 7.4086554449873079 2 45.87563721652414 2.5799230176124262 2 47.480217673954165 4.6874859350382492 2 17.97096424875204 1 2 57.43616785519437 2.6318972677087777 2 60.688544223755962 3.7007063874038222 2 44.46881724465505 4.5255298821692742 2 59.587360443835983 4.717940316238364 2 17.416332186428978 2.7044647144247738 2 58.572380240694535 1 2 46.609727045916657 6.0239317811882209 2 63.219108784235516 8.591061739348449 2 58.651775092449789 3.4376374820147122 2 21.058036538683602 5.2167968819137984 2 18.585235409587845 5.7531995542672743 2 45.056402263862161 7.0850710306059801 2 45.061148530837883 2.6274162955837292 2 46.077491317763894 5.1516848333929621 2 44.721926573602104 1 2 59.820568076133547 2.3560172391395882 2 47.103771953545206 1 2 57.814663233964779 3.664491070065266 2 </DataArray>
<DataArray Name="forces" NumberOfComponents="3" format="ascii" type="Float32">0 0 0 0.066072876255494406 -1.9728204639765852 0.0 -0.036010972307819022 -2.5440510366876974 0.0 -0.042957878956355944 1.2256151858944904 0.0 0.049750588720335359 1.4269711953757542 0.0 -0.14397286619625893 -2.8721586495419444 0.0 0.12890730702114545 0.69715784944139758 0.0 0.092193761454995693 0.67007980589474081 0.0 -0.0018111368899711433 0.76991358363319962 0.0 0.015385508784540619 0.69937490273141101 0.0 0.11060233481914805 1.2433944359784395 0.0 0.076515870460858726 -1.7540240651439476 0.0 -0.026089965026763556 0.50096993271279811 0.0 -0.0047835074371703756 0.99574613779735521 0.0 0.058177897407455631 1.3921869700328418 0.0 -0.083687613343746636 0.60155085587577972 0.0 1.4656602310455058 1.3272223452361396 0.0 0.073099298053281303 0.49160252745969141 0.0 -0.045479011791885543 0.58451503573724473 0.0 -0.11326539498342984 1.3578820347327878 0.0 -0.079139389326343276 -2.9277561709646909 0.0 -0.098524182902866686 0.3442118729138976 0.0 0.061625764904868263 0.56844994067248544 0.0 0.057328668984417575 -0.99704022137487525 0.0 0.45740636804895818 0.92934740446506381 0.0 0.01422545731684563 0.67325416622861556 0.0 0.069417674765418214 0.75110135381256482 0.0 -0.074905113425846048 0.51500638148844069 0.0 -0.10741074858735844 -1.3383429116210812 0.0 -0.024047760819530806 0.48810871408440926 0.0 0.047644431457383826 -2.9995350460580172 0.0 0.075426686409885702 -2.0224899753928272 0.0 -0.090519601739217359 0.52379821482057176 0.0 0.037144642850621745 0.25180206223748552 0.0 -0.16826015015552945 0.53119574517141421 0.0 0.049460271646891929 -3.4176801185762655 0.0 -0.0059587699475585898 0.61960684142233313 0.0 -0.081612759325057793 0.87588800287723956 0.0 0.072667270130880424 0.57440402391667189 0.0 0.078972884296424684 0.62593386018009634 0.0 1.9774452691786903 0.68353365554764123 0.0 0.06529643615938073 0.97028501203937001 0.0 0.15829024784346354 0.75878503613036663 0.0 0.079330952342959726 0.86723039700156379 0.0 -0.013357955705993962 0.57457122372543257 0.0 0.061375590869905738 -1.6405579185970263 0.0 0.084535767074648605 0.70352315854616843 0.0 0.065494105857657609 0.46864499249871538 0.0 -0.016291795068377635 0.49313286763456687 0.0 0.0035023260158307257 0.53731608835882205 0.0 0.13656954689471903 0.79081759842217125 0.0 2.599581825992582 0.54973192182612163 0.0 0.025837593772043699 -2.2180865153287739 0.0 -0.16089752559936171 -3.5718798495788282 0.0 0.061255751303566065 0.55249957929641003 0.0 0.10330734301382397 0.64885672501358493 0.0 -0.14395095435140159 0.72426958796342078 0.0 0.0092747738264901125 0.87522844466711092 0.0 1.6309460405620866 0.6666987024331017 0.0 0.025240836714238102 -2.8175817664631575 0.0 0.096214059064075708 0.83991649261251344 0.0 -0.0050159082166637559 0.51045239031995759 0.0 0.091988873900228363 -3.4634852295733061 0.0 0.12103956390102107 1.0423733835450595 0.0 0.053725471446824102 0.89330895592968373 0.0 0.020286303796792415 0.41247512490983279 0.0 0.030048930044064781 0.59426832680341835 0.0 0.076228650920774133 0.77186150966375633 0.0 -0.10309031127931712 0.56240766244991303 0.0 0.013481285313709179 -2.089742934173588 0.0 0.034112812773769985 0.90838419989474384 0.0 0.25142214179467315 0.61529586192675589 0.0 -0.11612428178477729 -3.6882005466465015 0.0 0.078822321879819884 0.51286862612819084 0.0 -0.08359226563987554 0.46552452027580915 0.0 -0.02356312016566886 0.67433907056369302 0.0 2.8235070399672839 -3.085183130928268 0.0 0.038031398909217723 0.67258491634147632 0.0 -0.067829449874056286 -2.3784557522040828 0.0 -0.0066400062497262713 0.56735084539923308 0.0 -0.13374611119374338 -2.9141672523083519 0.0 0.067899853752464878 -2.9971497074487203 0.0 0.045170277479192777 1.2479465115791051 0.0 0.036145379355341206 -1.9092047771746186 0.0 -0.023124962194428944 0.50857317728269502 0.0 0.051473100594220611 0.72793007807312038 0.0 0.08473036174668451 0.64104425041090884 0.0 0.15096855306015122 0.6223575886092616 0.0 -0.098991920095048203 -3.2880721979062049 0.0 -0.024161141581196113 1.1183515580114838 0.0 -0.048264203748658197 0.49367019939880435 0.0 -0.20266549712191173 1.1188660972039246 0.0 0.036029617713154695 0.6345551596580512 0.0 -0.067422037648872002 0.52715468210714833 0.0 0.034529471215496654 0.62350712089673044 0.0 0.059769061257615774 0.80865033893047278 0.0 -0.053946156938178162 -2.9460649624540332 0.0 0.17534165463910095 1.2830352482154141 0.0 0.12421724113733443 0.58143477508281349 0.0 0.074904372249602558 -1.9692703936708678 0.0 -0.068094787681809515 -2.4859443132692416 0.0 -0.099518909394120281 -1.1144826759306903 0.0 0.05155704726960697 -2.8583299470487953 0.0 0.13405303488793135 1.3193531313176907 0.0 -0.061784250396910823 0.60815681192197568 0.0 -0.11628127702881697 0.74690508413544343 0.0 -0.044865987718627834 0.54136058570488421 0.0 -0.0075837393421512855 0.95642570746269473 0.0 -0.05952348242965598 0.56234332021111744 0.0 -0.069092504010655406 0.71313430079834594 0.0 0.07929880438627504 -3.3994926529944407 0.0 -0.036808365396204357 -1.0150257465963584 0.0 -0.17001698404188464 1.0391965282037794 0.0 0.13410122687139259 0.64293629666022645 0.0 -0.012494839146724501 -3.2147707700043573 0.0 0.014552338852889202 -1.2394624357081763 0.0 0.06696928390051049 0.61465600506008977 0.0 0.00088386567035403374 1.210227640293394 0.0 -0.12787000722307418 0.47053694307058935 0.0 -0.027374459079132628 0.61765533979187459 0.0 0.016512785047393619 1.3035861867515235 0.0 -0.043589607065052549 0.38934721762898389 0.0 -0.0609586252485802 -0.86703699961745728 0.0 -0.093265838194318718 0.93597316207938097 0.0 0.077377976763913336 -3.2806256022782279 0.0 -0.013038553475950954 -2.8758445998754953 0.0 -0.13652287938491675 -3.4088125692702604 0.0 0.036774548281648084 0.50311896639866704 0.0 -0.1392599321715072 1.2948265362756928 0.0 0.024037803123293892 0.81991968336161014 0.0 0.046055399615458514 1.3098577822146251 0.0 2.8235070399672839 -3.085183130928268 0.0 -0.067485601079959601 -1.7590235128057439 0.0 -0.022280636591537534 0.63568903608770067 0.0 -0.014141129532051572 0.95985415027671706 0.0 0.092445569821942741 -2.2816409746285657 0.0 -0.094553169234141782 0.6185987464911713 0.0 -0.089484550911992478 0.60067480004480367 0.0 0.017814763341542361 0.64557487630254529 0.0 -0.16425714380315171 -2.9431129551270816 0.0 0.0093624980996101226 0.53018510017671638 0.0 0.0027949852620283017 0.62757119741532386 0.0 -0.11138204349105851 0.74067681058124768 0.0 -0.15096616276418384 1.380462250351238 0.0 0.04024046115255997 0.95765866876307193 0.0 -0.0513571930528351 0.79382457531882022 0.0 -0.021454506819618385 0.5582328467071046 0.0 -0.045393929896063001 -3.1337267774554771 0.0 -0.0024814939306029155 1.0229163409251365 0.0 -0.017149431770452833 0.57648873308867443 0.0 0.048891007516709273 0.38050866262350852 0.0 0.022834932920468343 -3.2817836937326113 0.0 -0.17207812144384221 0.91559590665039869 0.0 -0.11899687504702897 0.52292280601330399 0.0 -0.016358219764960324 0.64465039012859338 0.0 -0.061981350647476341 0.43757085469294843 0.0 -0.006539341638475582 0.50022771356298379 0.0 0.040178036723207855 1.1182596919222778 0.0 -0.051493078200771869 -3.3183030250780652 0.0 0.093017349523735957 0.5690027551047927 0.0 -0.23926204603356321 0.50383350710300601 0.0 0.028044006103163075 0.62050256842694196 0.0 0.011245658984860546 0.46505653744921116 0.0 0.10552989768544552 1.0713704373750645 0.0 -0.061737493486207828 -3.0070720741373056 0.0 -0.064535577041079858 0.58917542915739107 0.0 0.056053435897996773 0.62146756762513 0.0 -0.094970967465240586 0.63327203478876737 0.0 0.023765738175107742 0.58459230821271624 0.0 -0.032481210362695745 0.41606048524374151 0.0 0.0079825617354113698 -1.892362396807802 0.0 0.010648105067430719 0.74382268461260792 0.0 -0.046818187929374283 0.64878930228658838 0.0 -0.056606058509022894 0.7074127677576898 0.0 0.027371130875678551 0.61939066685886479 0.0 0.061997415565219344 0.64627656135517286 0.0 -0.13862386558459372 0.60359360806587836 0.0 -0.056550170466900473 -2.6097987648299377 0.0 0.056069857250834375 0.46137592599219579 0.0 -0.014345404377542059 0.61578602752585598 0.0 -0.15504063553166017 1.219950084863487 0.0 0.03770957753277826 -2.906363051374552 0.0 0.029707131023383071 0.75816655580547587 0.0 0.064597629011995283 0.52829498232353589 0.0 -0.012556175803347169 0.90928370711868789 0.0 0.091335916250098209 -2.7528690905743312 0.0 -0.055839322165601807 0.58327612950362917 0.0 0.013734451524286317 -2.826560208709306 0.0 -0.11942447550851853 0.63855100956106647 0.0 -0.060414738700428572 1.1731281203564912 0.0 -0.076287453006147143 0.61890983844427327 0.0 -0.033325554807534241 0.69581132560598191 0.0 -0.07661184866960602 1.190741208590872 0.0 -0.044081940369050554 1.0029460528101675 0.0 0.031432867712639867 -1.5985135402474184 0.0 -0.13328911664805376 -3.0163213707044143 0.0 -0.017768662531506996 0.94407245101404913 0.0 -0.091406554098968695 0.53169059563037102 0.0 -0.013858998818148116 0.74569180144864244 0.0 -0.060603119428961919 -2.5003219975227049 0.0 0.04226456999875261 0.54472065165685413 0.0 0.02582201107814619 0.90356899237886901 0.0 -0.059213752948590881 0.67577772087826338 0.0 -0.098072168049953057 -3.0300864022152041 0.0 0.13844183329232007 0.50399902979445721 0.0 0.016438554795833782 0.44533526663189626 0.0 -0.035085209899425818 0.72102559512531261 0.0 0.028837860335371723 0.57538252747124252 0.0 -0.009223073706662907 0.66187282481526011 0.0 0.068902329732736911 0.64765619747684944 0.0 0.033102813229258732 0.48264463237483551 0.0 -0.080418731587667214 0.70530413225701016 0.0 0.19200041190971862 0.47976236482211942 0.0 -0.14644174089403442 0.59217672964258528 0.0 0.079054907294566434 0.77989934594588783 0.0 -0.016150734086071067 0.69272330645984825 0.0 -0.036046574705192791 0.67731626862171257 0.0 -0.061387751356742903 0.43376323411675505 0.0 0.063251032729267298 0.6277684435343146 0.0 0.074326393372490862 -2.9715173050071515 0.0 -0.076937799235211685 0.48165583784969668 0.0 -0.00048821765824252905 0.38199285542823957 0.0 -0.034523451337974909 0.45249973406972488 0.0 0.04436644245147825 0.69013534274897381 0.0 0.00074617170931901879 0.39512367768719464 0.0 -0.098394303346313841 -2.9398344843582502 0.0 -0.024295321713903473 0.67025270190790665 0.0 -0.075901303837154321 0.71395253651971657 0.0 -0.021483923901622015 0.52891709510644813 0.0 0.0062321763846509837 0.58247965625500897 0.0 0.047463271163849824 0.6818616389407457 0.0 -0.043836204647407354 0.61986565237464542 0.0 -0.07938158431104668 0.52582573922684639 0.0 -0.058256765023284474 0.62720619388198751 0.0 0.033151405778345841 -3.3705143299665559 0.0 0.16145996445695143 0.4066186930756539 0.0 0.032343655965960227 -3.2733116191941729 0.0 0.042887049106235448 0.56549909157723299 0.0 </DataArray>
<DataArray Name="radii" format="ascii" type="Float32">0 1.2 1 1.4 1.4 1 1 1.2 1 1 1.4 1.2 1 1.2 1.4 1 1.4 1 1 1.4 1 1 1 1.4 1 1 1 1 1.4 1 1 1.2 1 1 1.2 1 1 1.2 1.2 1 1 1.2 1 1.2 1 1.4 1.2 1 1 1 1.2 1 1.2 1 1 1 1 1.2 1 1 1.2 1 1 1.2 1.2 1 1 1.2 1 1.4 1.2 1 1 1 1 1 1 1 1 1 1 1 1.4 1 1 1.2 1 1 1 1.4 1 1.4 1 1 1 1 1 1.4 1 1.2 1 1.4 1 1.4 1 1.2 1 1.2 1.2 1 1 1.4 1.2 1 1 1.4 1 1.4 1 1 1.4 1 1.4 1.2 1 1 1 1 1.4 1 1.4 1 1.2 1 1.2 1 1 1 1 1 1 1 1.2 1.4 1.2 1.2 1 1 1.2 1 1 1.2 1.2 1 1 1 1 1.4 1.2 1 1 1 1 1.4 1.2 1 1 1 1 1 1.4 1 1 1 1 1 1 1 1 1 1.4 1 1 1 1.2 1.2 1 1 1 1.4 1 1 1.4 1.4 1.4 1 1.2 1 1 1 1 1.4 1 1 1 1 1 1 1 1 1 1 1 1 1 1 1 1 1 1 1 1 1 1 1 1 1 1 1 1 1 1 1 1 1 1 1 1 </DataArray>
</PointData>
<CellData/>
</Piece>
</UnstructuredGrid>
</VTKFile>
