<?xml version="1.0" ?>
<VTKFile byte_order="LittleEndian" type="UnstructuredGrid" version="0.1">
<UnstructuredGrid>
<Piece NumberOfCells="0" NumberOfPoints="374">
<Points>
<DataArray NumberOfComponents="3" format="ascii" type="Float32">9.5461690442767111 1.4 2 29.262782897177466 1.4 2 77.06686108160369 2.8827559693918174 2 80.288735222201524 3.3817901234240457 2 88.928159634095422 4.0111061141180588 2 3.0106500223221278 1.4 2 34.381784781404406 2.8275516586570051 2 68.624508196392199 1.4 2 85.926797959681053 1.4 2 86.773072959714995 10.527904643158507 2 5.470770271259755 8.3607357375123126 2 31.187143687230545 8.5065526115597123 2 75.04467020432466 9.0500053598210393 2 79.542009887600599 6.5967190583348279 2 92.533899024431804 5.0565217057157517 2 5.1571406572536782 6.6701894160977018 2 34.7288687126185 3.836296240627763 2 69.239753086616304 1.4 2 81.055885870854993 6.6593728600359956 2 87.836415507465162 1.4 2 5.1157682795481572 1.4 2 27.876882226304694 1.4 2 75.175422457107118 3.5005783183326016 2 77.219237037282525 4.7555100255174168 2 88.746584014210327 8.9963355048009728 2 3.6169963953267019 2.0597674292002357 2 37.807346469362614 3.2180856834058398 2 71.278895458095803 4.9015509196950235 2 85.596798891972199 3.5808549555025366 2 86.045763261896013 9.0231770682160324 2 7.8523180415007552 4.2802341517924134 2 26.61513864077974 8.0494625143240217 2 71.537377237890723 10.029384914256783 2 76.069988425854604 5.3571092697952887 2 94.38309959399902 1.4 2 95.086526039707607 1.4 2 2.3435748813738075 6.3158521390446323 2 36.139270702929501 7.8097344368195367 2 72.92925645264684 4.328517289397686 2 80.870357608431974 2.4649422709799622 2 91.752418825051365 2.6625929203385632 2 12.262514925378184 1.4 2 31.089628941728957 2.6118026201334863 2 78.319761177134936 2.9727691426375653 2 79.250454653845921 1.4 2 90.079908687354731 4.0837819754824265 2 1.4 3.0316200997859974 2 12.153033170511218 7.1226757847911344 2 34.099450933022744 1.4 2 68.05578690734859 5.6053866078566825 2 68.320503474458263 3.1091650887235969 2 83.685322271766879 2.1751029441324325 2 88.774291537252779 6.3022308436707499 2 8.0741254049744597 9.6618402709443743 2 33.697641858946049 6.0774586675733513 2 73.823423511444133 6.6105397027102883 2 77.577919405004906 10.406140761729832 2 92.520087446827276 8.3739638604740261 2 6.2204249290983604 5.9541041149740952 2 32.483681428721049 4.6137895017144874 2 73.177189261710026 1.4 2 84.522564904776303 4.1603492925692542 2 90.230258890732316 1.4 2 7.9849065539431008 2.6309184432722779 2 25.758155033368762 3.6177990578902564 2 29.032856129501344 7.3361682551505814 2 74.339665067502438 1.4 2 80.244056305994505 5.484052220796241 2 95.103158532166205 8.5264747042356674 2 4.912544164549498 3.9838169992771046 2 36.754585763324229 2.3007372953781715 2 69.443411780585009 8.7103237869911432 2 85.471289028857768 7.3583233063567048 2 84.684670859628 5.5163721588168109 2 8.4806124749399299 7.6263867343229954 2 25.466015443243705 6.3717391483188521 2 73.571434048295814 7.9261691874290374 2 77.290606931697965 7.2263757976037217 2 95.029796516817399 5.7224232737552949 2 96.450047013628719 3.9521247404431783 2 1.4 7.4984642235257404 2 37.683457606965789 4.6963958794932417 2 72.694874356618143 2.0700061930993172 2 82.738107138226297 3.1106547456066291 2 91.04492294920307 1.4 2 97.806690463646291 4.4709278551078899 2 10.175032281439625 1.4 2 29.578358722162047 2.3336085530484492 2 76.275194779818946 1.4 2 80.858603382434282 4.1490879099742584 2 89.489041807480049 5.3271223447649714 2 1.4 2.1362578084577595 2 32.162227232518376 1.4 2 67.421479428634214 1.4 2 86.587257038303321 1.4 2 86.764221927211381 7.8261201864514112 2 6.9351250945005534 8.0868476729546064 2 12.136838260455354 3.6043102096900452 2 33.815128325364547 9.1125926509923953 2 74.146116901550187 10.716298486118555 2 78.833309853940847 9.2095223660559959 2 93.817069120083275 6.2224839896856095 2 2.8664441399999645 7.6371886010357395 2 33.431596275776947 3.4730740432140039 2 65.476928830531946 1.4 2 70.486116078021325 1.4 2 81.292329697837786 8.7087995031266594 2 88.427028364228065 1.4 2 6.9631347944050779 1.4 2 28.584026223158709 3.6671129977018326 2 74.094857403658281 3.9549925193087474 2 79.668767796981982 4.4553388268229863 2 91.334947449482314 9.7326349966883754 2 3.8083201721005762 1.4 2 37.419560866660177 1.4 2 70.618617616284112 3.2078585513953413 2 87.640689305578945 3.8706843873286036 2 84.108723435959377 11.602658333054421 2 98.6 1.4 2 9.4406609750276704 3.4695442859385017 2 29.708759848345483 9.9814249892875306 2 69.644534378485147 10.146799385238049 2 76.365723133904794 3.5867197114136369 2 92.994157968844661 1.4 2 97.056959974600304 2.0843379948838008 2 2.2335464253083184 4.6699674183251902 2 37.382384991161366 9.3148530920510453 2 72.239157950469618 5.5011742493421325 2 80.558820397067763 1.4 2 93.212485136874406 3.8753191353587124 2 10.766346996492951 3.5488624352163765 2 31.525095720555072 1.4 2 77.556072999906689 1.4 2 79.42712501234854 2.2554909957006739 2 90.84210096743054 5.216904183808956 2 1.4 1.4 2 11.786094037690372 9.0789425495694047 2 35.968853138573039 1.4 2 68.505243510227416 4.5683512194627482 2 70.057122617282417 4.0430636395382864 2 81.769923254213211 1.4 2 87.521339250339167 6.4352128611064803 2 10.160083881019057 10.489023853102962 2 13.013070611627773 1.4 2 32.674104197921409 7.6371690621351469 2 76.104596127571924 6.9672253522190823 2 79.065511905078154 11.675925464615448 2 90.597348397761891 6.3836844279346714 2 6.9170524116852681 3.6919239040234064 2 31.169600428099692 4.3311365442126606 2 66.955911698282236 2.9055268783479615 2 73.167329000538061 3.2735560306577067 2 84.650429190089326 1.4 2 88.472788762722487 3.1407127845409404 2 7.640034741916951 1.4 2 27.394386947055324 4.3962752755864916 2 30.305006375065407 5.1818597031946041 2 39.324540029301481 4.1617609812545906 2 74.934390930184932 1.4 2 83.144728203555729 6.4230373530344531 2 97.137007223780842 8.054576018374167 2 3.1629111784837951 3.9332067551419412 2 35.575374475940571 3.2228283929808783 2 39.601342684141095 1.8980927777432146 2 69.667168708529402 6.1626090131820215 2 85.6212154568437 4.8458400207029708 2 84.203018374737312 8.1242819070661891 2 8.8060872503385053 5.5365144972240721 2 24.420339070049447 1.4 2 27.98412887439396 6.1682781371235178 2 71.419410962940333 6.9936938333953353 2 78.255372573045719 6.2139732307190823 2 95.883318398079311 3.0677550826013622 2 98.6 2.4414898109635246 2 1.4 9.8710014267518496 2 25.86120662579064 1.4 2 36.342763319576441 5.8114620395749723 2 71.331843175721247 2.4242023379611681 2 83.066191555715235 4.0665236481174736 2 91.711513658888535 1.4 2 96.848041057092388 6.6804082563776275 2 8.2778961179832447 1.4 2 30.782725610335397 1.4 2 77.00191114011119 1.4 2 79.22613427257356 3.4327212068410327 2 89.618096388577982 3.0557262523441846 2 2.5551026744144791 3.0104718220772537 2 35.334654066126738 1.4 2 68.008432815638216 1.4 2 85.252410979155513 1.4 2 88.837888087293763 10.588824532321695 2 4.0977385299949676 9.9747302196100271 2 32.20117346110451 10.218898201960545 2 76.236139956530579 9.2459189303541667 2 80.25124039695217 7.7749230097729312 2 94.029804252516129 4.9002205866036768 2 3.7019828995297481 6.075645120722732 2 35.090747217816961 5.2209585047710512 2 69.248880289293126 2.439269908627745 2 82.168948166428848 7.2369325005964713 2 87.734306605913886 2.5321430156847762 2 5.711973581287288 1.4 2 26.85531849289594 2.1755010070198608 2 74.054384077078282 2.8960407002110227 2 78.864244645659099 5.3863839504268576 2 90.371029565542699 8.4728421552295092 2 3.8351400470309058 3.3746796036181888 2 38.665413421199126 3.5173566825143028 2 69.514500643136202 5.1296492006926728 2 85.858314042270706 2.2332656724924118 2 84.603509942702843 9.7358545081158638 2 7.4589415981132676 5.397055812394199 2 14.700670634338509 1.4 2 28.349928995155004 8.4767027944414615 2 71.865844591027937 8.4842087994701672 2 74.632735894540858 5.0768253527974494 2 94.765510241384419 2.5696678113717542 2 95.706831134998311 1.4 2 3.7379339598178403 4.9829198422430503 2 34.448091613206905 7.7085183106690938 2 66.053358301192915 5.9354291955086609 2 71.396973911255429 3.877567950465346 2 82.197261041470369 1.4780631221057796 2 92.403808829573165 3.3939711772422365 2 11.667093573165367 2.8094812088594012 2 32.565300927866303 2.7782866618631803 2 64.581340477112704 4.8251198695034034 2 77.532588713217635 3.6569788579518652 2 78.660193308654016 1.4 2 90.852869374528083 3.404178591028264 2 1.4 3.7888349419680942 2 10.856129702295817 6.985879499052686 2 32.835459346875936 1.4 2 41.459780209200538 4.9366516449908611 2 68.060302628185184 6.9022548860570181 2 67.563679657888443 3.6626376623628101 2 82.730953578489377 1.4 2 89.59178541311995 7.2873432274940315 2 6.160639332466892 10.383068275338259 2 35.124636260364994 6.5544431255395299 2 75.034086172331257 6.1377681918703253 2 75.989022476656288 11.556482568003879 2 93.773690024244743 10.114300914612752 2 6.1238899516817487 4.6048356921965956 2 33.762444934742234 4.7684032587572602 2 72.431574930069772 1.4 2 84.785192193788745 2.964638082772626 2 89.01367604876836 1.4 2 8.9207486576528101 1.4 2 25.081282668182372 4.7886104184882283 2 30.522873819161518 7.3383371871941643 2 75.136044596685764 2.5735462850171205 2 81.374581242917642 5.5457979432675515 2 93.800206294912584 7.5573134713500263 2 4.9378877482639796 5.3390097490980022 2 36.693551413000435 1.4 2 66.225987790678246 8.0746022129118149 2 70.603458540777297 7.9354254959513071 2 84.435320976204906 6.7541244052163156 2 83.573527159670874 5.3187005275577803 2 9.5200092712802924 6.4056804388854554 2 26.783415851690819 6.3106931444836327 2 73.24724354035159 9.2287102347906682 2 77.452116256990948 8.4002057830103016 2 96.119284110633174 5.4007105900594157 2 95.221127814827852 4.0316411499311897 2 1.4 5.9519936689002924 2 36.35046060115058 4.5057983691998826 2 71.739668825799384 1.4 2 81.624560143849763 3.2299579231517161 2 90.468848643034804 2.0899411275752202 2 97.282058996660396 3.2832132858467036 2 10.17581450279595 2.6143184272508186 2 28.345529383685726 2.5327930649712136 2 42.079124363269166 1.4 2 76.310806657778343 1.9516969458693914 2 81.991241353804071 4.0725504844875351 2 88.127016917691989 5.1182254718468245 2 1.4 1.4 2 33.461946227142562 1.4 2 66.847080199181008 1.4 2 86.67297739530639 3.0815748155264151 2 87.967410609982707 7.9526109075155729 2 7.2826762504795388 6.7058839675780053 2 11.921883264809924 4.6872203445477361 2 35.52816798590478 10.014118695937565 2 72.446863211197069 11.757047507239712 2 78.843680986795576 7.7664285544904139 2 92.375412949750654 6.1171617015052986 2 4.2482266724877853 7.6417711484372388 2 22.826258345988634 8.1533363286159428 2 31.907377184725554 3.5427394473327043 2 64.78368369595222 2.3340255329630502 2 69.921554730797226 1.4 2 80.216573267219118 9.8003779372689497 2 89.592550560065632 1.4 2 6.3083179931734108 1.4 2 30.111998631555146 3.3651330723219965 2 73.486864993134404 5.399061498687356 2 78.39102851984606 4.1863799584439807 2 90.831075745151225 11.681731113444235 2 4.4830110908203276 1.4 2 38.17999925609908 1.4 2 72.166843648719535 3.4155677129663031 2 86.602779747576093 4.0743030359462784 2 82.577596757721437 9.9010190108098364 2 97.830313239838304 1.4 2 8.4643930809908294 3.4409367822488521 2 27.108009479056708 10.28720156272936 2 69.968412855111438 12.085446888886024 2 75.644980717613322 4.3506289739467645 2 93.717427562581648 1.4 2 96.3547197821227 1.4 2 1.4 4.8441467823747528 2 39.083213425256183 10.401080119033374 2 72.630423799974537 6.7612560183019479 2 79.940748278770059 1.4 2 93.304193370211379 2.5010853714330268 2 10.825791106492606 1.4 2 21.66886705919967 1.4 2 30.121143424439257 1.4 2 78.114358876978187 1.4 2 81.174134447865882 1.4 2 91.581432574734094 4.2732155700248233 2 2.3091677495143994 1.4 2 13.554094830986772 9.4868567641636421 2 34.718465584208445 1.4 2 40.073876305421422 6.8883931992155292 2 66.976186385590395 4.4427903979523267 2 69.391644067258724 3.4341811814016405 2 83.324274671452557 1.4 2 86.902835808890174 5.3849535280022538 2 9.8839236288250696 8.3494934694048979 2 13.648675761224379 1.4 2 32.492866000166643 6.080501181963105 2 75.085837286231325 7.5841664766540173 2 81.469079443720844 11.486689903288172 2 91.63794588749407 7.1742507302977785 2 5.7572552906522168 3.3240352228009797 2 29.591327387455969 4.1449274809498551 2 64.348931946391986 1.4 2 65.822470790066347 2.4439665383107041 2 73.760389653022386 1.4 2 84.033393396457797 1.4 2 87.189345669991852 1.4 2 6.6313158302126931 2.6647906941585564 2 26.391929461147459 4.7387042808727378 2 31.276987778898537 6.0696841648023589 2 39.902712644346764 5.0340752655894319 2 75.529367275197799 1.4 2 82.358789351069959 5.3393641918267054 2 97.018060505809117 9.9096898675974998 2 4.779258346872763 2.8425864195215689 2 15.805648095783161 9.4069022158549984 2 36.687590220945424 3.5259393437034459 2 38.606108655563574 2.0009786462047385 2 69.10187943155907 7.3848579550349305 2 86.008803108898405 6.14306548966118 2 82.890421672473877 8.3359170488784304 2 9.549445210588523 4.5844407391001312 2 25.141834020467162 2.044065250940633 2 29.327851444588472 5.9146017210867239 2 70.813474469468986 5.8733350762544356 2 77.155570901382632 5.8174956533925402 2 94.212465016487684 3.5530210200203296 2 98.6 3.7202949694967207 2 2.6174520259024634 9.0499172086451427 2 26.634419294529518 1.4 2 37.571995680278235 6.2110933310808703 2 62.660169254869345 2.7612994245847089 2 71.0963635667093 1.4 2 83.869146497608227 3.4161863293551589 2 92.372520550947698 1.4 2 97.522235881466329 5.6097622054387148 2 </DataArray>
</Points>
<Cells>
<DataArray Name="connectivity" format="ascii" type="Int32">0</DataArray>
<DataArray Name="offsets" format="ascii" type="Int32">0</DataArray>
<DataArray Name="types" format="ascii" type="UInt8">1</DataArray>
</Cells>
<PointData>
<DataArray Name="Points" NumberOfComponents="3" format="ascii" type="Float32">9.5461690442767111 1.4 2 29.262782897177466 1.4 2 77.06686108160369 2.8827559693918174 2 80.288735222201524 3.3817901234240457 2 88.928159634095422 4.0111061141180588 2 3.0106500223221278 1.4 2 34.381784781404406 2.8275516586570051 2 68.624508196392199 1.4 2 85.926797959681053 1.4 2 86.773072959714995 10.527904643158507 2 5.470770271259755 8.3607357375123126 2 31.187143687230545 8.5065526115597123 2 75.04467020432466 9.0500053598210393 2 79.542009887600599 6.5967190583348279 2 92.533899024431804 5.0565217057157517 2 5.1571406572536782 6.6701894160977018 2 34.7288687126185 3.836296240627763 2 69.239753086616304 1.4 2 81.055885870854993 6.6593728600359956 2 87.836415507465162 1.4 2 5.1157682795481572 1.4 2 27.876882226304694 1.4 2 75.175422457107118 3.5005783183326016 2 77.219237037282525 4.7555100255174168 2 88.746584014210327 8.9963355048009728 2 3.6169963953267019 2.0597674292002357 2 37.807346469362614 3.2180856834058398 2 71.278895458095803 4.9015509196950235 2 85.596798891972199 3.5808549555025366 2 86.045763261896013 9.0231770682160324 2 7.8523180415007552 4.2802341517924134 2 26.61513864077974 8.0494625143240217 2 71.537377237890723 10.029384914256783 2 76.069988425854604 5.3571092697952887 2 94.38309959399902 1.4 2 95.086526039707607 1.4 2 2.3435748813738075 6.3158521390446323 2 36.139270702929501 7.8097344368195367 2 72.92925645264684 4.328517289397686 2 80.870357608431974 2.4649422709799622 2 91.752418825051365 2.6625929203385632 2 12.262514925378184 1.4 2 31.089628941728957 2.6118026201334863 2 78.319761177134936 2.9727691426375653 2 79.250454653845921 1.4 2 90.079908687354731 4.0837819754824265 2 1.4 3.0316200997859974 2 12.153033170511218 7.1226757847911344 2 34.099450933022744 1.4 2 68.05578690734859 5.6053866078566825 2 68.320503474458263 3.1091650887235969 2 83.685322271766879 2.1751029441324325 2 88.774291537252779 6.3022308436707499 2 8.0741254049744597 9.6618402709443743 2 33.697641858946049 6.0774586675733513 2 73.823423511444133 6.6105397027102883 2 77.577919405004906 10.406140761729832 2 92.520087446827276 8.3739638604740261 2 6.2204249290983604 5.9541041149740952 2 32.483681428721049 4.6137895017144874 2 73.177189261710026 1.4 2 84.522564904776303 4.1603492925692542 2 90.230258890732316 1.4 2 7.9849065539431008 2.6309184432722779 2 25.758155033368762 3.6177990578902564 2 29.032856129501344 7.3361682551505814 2 74.339665067502438 1.4 2 80.244056305994505 5.484052220796241 2 95.103158532166205 8.5264747042356674 2 4.912544164549498 3.9838169992771046 2 36.754585763324229 2.3007372953781715 2 69.443411780585009 8.7103237869911432 2 85.471289028857768 7.3583233063567048 2 84.684670859628 5.5163721588168109 2 8.4806124749399299 7.6263867343229954 2 25.466015443243705 6.3717391483188521 2 73.571434048295814 7.9261691874290374 2 77.290606931697965 7.2263757976037217 2 95.029796516817399 5.7224232737552949 2 96.450047013628719 3.9521247404431783 2 1.4 7.4984642235257404 2 37.683457606965789 4.6963958794932417 2 72.694874356618143 2.0700061930993172 2 82.738107138226297 3.1106547456066291 2 91.04492294920307 1.4 2 97.806690463646291 4.4709278551078899 2 10.175032281439625 1.4 2 29.578358722162047 2.3336085530484492 2 76.275194779818946 1.4 2 80.858603382434282 4.1490879099742584 2 89.489041807480049 5.3271223447649714 2 1.4 2.1362578084577595 2 32.162227232518376 1.4 2 67.421479428634214 1.4 2 86.587257038303321 1.4 2 86.764221927211381 7.8261201864514112 2 6.9351250945005534 8.0868476729546064 2 12.136838260455354 3.6043102096900452 2 33.815128325364547 9.1125926509923953 2 74.146116901550187 10.716298486118555 2 78.833309853940847 9.2095223660559959 2 93.817069120083275 6.2224839896856095 2 2.8664441399999645 7.6371886010357395 2 33.431596275776947 3.4730740432140039 2 65.476928830531946 1.4 2 70.486116078021325 1.4 2 81.292329697837786 8.7087995031266594 2 88.427028364228065 1.4 2 6.9631347944050779 1.4 2 28.584026223158709 3.6671129977018326 2 74.094857403658281 3.9549925193087474 2 79.668767796981982 4.4553388268229863 2 91.334947449482314 9.7326349966883754 2 3.8083201721005762 1.4 2 37.419560866660177 1.4 2 70.618617616284112 3.2078585513953413 2 87.640689305578945 3.8706843873286036 2 84.108723435959377 11.602658333054421 2 98.6 1.4 2 9.4406609750276704 3.4695442859385017 2 29.708759848345483 9.9814249892875306 2 69.644534378485147 10.146799385238049 2 76.365723133904794 3.5867197114136369 2 92.994157968844661 1.4 2 97.056959974600304 2.0843379948838008 2 2.2335464253083184 4.6699674183251902 2 37.382384991161366 9.3148530920510453 2 72.239157950469618 5.5011742493421325 2 80.558820397067763 1.4 2 93.212485136874406 3.8753191353587124 2 10.766346996492951 3.5488624352163765 2 31.525095720555072 1.4 2 77.556072999906689 1.4 2 79.42712501234854 2.2554909957006739 2 90.84210096743054 5.216904183808956 2 1.4 1.4 2 11.786094037690372 9.0789425495694047 2 35.968853138573039 1.4 2 68.505243510227416 4.5683512194627482 2 70.057122617282417 4.0430636395382864 2 81.769923254213211 1.4 2 87.521339250339167 6.4352128611064803 2 10.160083881019057 10.489023853102962 2 13.013070611627773 1.4 2 32.674104197921409 7.6371690621351469 2 76.104596127571924 6.9672253522190823 2 79.065511905078154 11.675925464615448 2 90.597348397761891 6.3836844279346714 2 6.9170524116852681 3.6919239040234064 2 31.169600428099692 4.3311365442126606 2 66.955911698282236 2.9055268783479615 2 73.167329000538061 3.2735560306577067 2 84.650429190089326 1.4 2 88.472788762722487 3.1407127845409404 2 7.640034741916951 1.4 2 27.394386947055324 4.3962752755864916 2 30.305006375065407 5.1818597031946041 2 39.324540029301481 4.1617609812545906 2 74.934390930184932 1.4 2 83.144728203555729 6.4230373530344531 2 97.137007223780842 8.054576018374167 2 3.1629111784837951 3.9332067551419412 2 35.575374475940571 3.2228283929808783 2 39.601342684141095 1.8980927777432146 2 69.667168708529402 6.1626090131820215 2 85.6212154568437 4.8458400207029708 2 84.203018374737312 8.1242819070661891 2 8.8060872503385053 5.5365144972240721 2 24.420339070049447 1.4 2 27.98412887439396 6.1682781371235178 2 71.419410962940333 6.9936938333953353 2 78.255372573045719 6.2139732307190823 2 95.883318398079311 3.0677550826013622 2 98.6 2.4414898109635246 2 1.4 9.8710014267518496 2 25.86120662579064 1.4 2 36.342763319576441 5.8114620395749723 2 71.331843175721247 2.4242023379611681 2 83.066191555715235 4.0665236481174736 2 91.711513658888535 1.4 2 96.848041057092388 6.6804082563776275 2 8.2778961179832447 1.4 2 30.782725610335397 1.4 2 77.00191114011119 1.4 2 79.22613427257356 3.4327212068410327 2 89.618096388577982 3.0557262523441846 2 2.5551026744144791 3.0104718220772537 2 35.334654066126738 1.4 2 68.008432815638216 1.4 2 85.252410979155513 1.4 2 88.837888087293763 10.588824532321695 2 4.0977385299949676 9.9747302196100271 2 32.20117346110451 10.218898201960545 2 76.236139956530579 9.2459189303541667 2 80.25124039695217 7.7749230097729312 2 94.029804252516129 4.9002205866036768 2 3.7019828995297481 6.075645120722732 2 35.090747217816961 5.2209585047710512 2 69.248880289293126 2.439269908627745 2 82.168948166428848 7.2369325005964713 2 87.734306605913886 2.5321430156847762 2 5.711973581287288 1.4 2 26.85531849289594 2.1755010070198608 2 74.054384077078282 2.8960407002110227 2 78.864244645659099 5.3863839504268576 2 90.371029565542699 8.4728421552295092 2 3.8351400470309058 3.3746796036181888 2 38.665413421199126 3.5173566825143028 2 69.514500643136202 5.1296492006926728 2 85.858314042270706 2.2332656724924118 2 84.603509942702843 9.7358545081158638 2 7.4589415981132676 5.397055812394199 2 14.700670634338509 1.4 2 28.349928995155004 8.4767027944414615 2 71.865844591027937 8.4842087994701672 2 74.632735894540858 5.0768253527974494 2 94.765510241384419 2.5696678113717542 2 95.706831134998311 1.4 2 3.7379339598178403 4.9829198422430503 2 34.448091613206905 7.7085183106690938 2 66.053358301192915 5.9354291955086609 2 71.396973911255429 3.877567950465346 2 82.197261041470369 1.4780631221057796 2 92.403808829573165 3.3939711772422365 2 11.667093573165367 2.8094812088594012 2 32.565300927866303 2.7782866618631803 2 64.581340477112704 4.8251198695034034 2 77.532588713217635 3.6569788579518652 2 78.660193308654016 1.4 2 90.852869374528083 3.404178591028264 2 1.4 3.7888349419680942 2 10.856129702295817 6.985879499052686 2 32.835459346875936 1.4 2 41.459780209200538 4.9366516449908611 2 68.060302628185184 6.9022548860570181 2 67.563679657888443 3.6626376623628101 2 82.730953578489377 1.4 2 89.59178541311995 7.2873432274940315 2 6.160639332466892 10.383068275338259 2 35.124636260364994 6.5544431255395299 2 75.034086172331257 6.1377681918703253 2 75.989022476656288 11.556482568003879 2 93.773690024244743 10.114300914612752 2 6.1238899516817487 4.6048356921965956 2 33.762444934742234 4.7684032587572602 2 72.431574930069772 1.4 2 84.785192193788745 2.964638082772626 2 89.01367604876836 1.4 2 8.9207486576528101 1.4 2 25.081282668182372 4.7886104184882283 2 30.522873819161518 7.3383371871941643 2 75.136044596685764 2.5735462850171205 2 81.374581242917642 5.5457979432675515 2 93.800206294912584 7.5573134713500263 2 4.9378877482639796 5.3390097490980022 2 36.693551413000435 1.4 2 66.225987790678246 8.0746022129118149 2 70.603458540777297 7.9354254959513071 2 84.435320976204906 6.7541244052163156 2 83.573527159670874 5.3187005275577803 2 9.5200092712802924 6.4056804388854554 2 26.783415851690819 6.3106931444836327 2 73.24724354035159 9.2287102347906682 2 77.452116256990948 8.4002057830103016 2 96.119284110633174 5.4007105900594157 2 95.221127814827852 4.0316411499311897 2 1.4 5.9519936689002924 2 36.35046060115058 4.5057983691998826 2 71.739668825799384 1.4 2 81.624560143849763 3.2299579231517161 2 90.468848643034804 2.0899411275752202 2 97.282058996660396 3.2832132858467036 2 10.17581450279595 2.6143184272508186 2 28.345529383685726 2.5327930649712136 2 42.079124363269166 1.4 2 76.310806657778343 1.9516969458693914 2 81.991241353804071 4.0725504844875351 2 88.127016917691989 5.1182254718468245 2 1.4 1.4 2 33.461946227142562 1.4 2 66.847080199181008 1.4 2 86.67297739530639 3.0815748155264151 2 87.967410609982707 7.9526109075155729 2 7.2826762504795388 6.7058839675780053 2 11.921883264809924 4.6872203445477361 2 35.52816798590478 10.014118695937565 2 72.446863211197069 11.757047507239712 2 78.843680986795576 7.7664285544904139 2 92.375412949750654 6.1171617015052986 2 4.2482266724877853 7.6417711484372388 2 22.826258345988634 8.1533363286159428 2 31.907377184725554 3.5427394473327043 2 64.78368369595222 2.3340255329630502 2 69.921554730797226 1.4 2 80.216573267219118 9.8003779372689497 2 89.592550560065632 1.4 2 6.3083179931734108 1.4 2 30.111998631555146 3.3651330723219965 2 73.486864993134404 5.399061498687356 2 78.39102851984606 4.1863799584439807 2 90.831075745151225 11.681731113444235 2 4.4830110908203276 1.4 2 38.17999925609908 1.4 2 72.166843648719535 3.4155677129663031 2 86.602779747576093 4.0743030359462784 2 82.577596757721437 9.9010190108098364 2 97.830313239838304 1.4 2 8.4643930809908294 3.4409367822488521 2 27.108009479056708 10.28720156272936 2 69.968412855111438 12.085446888886024 2 75.644980717613322 4.3506289739467645 2 93.717427562581648 1.4 2 96.3547197821227 1.4 2 1.4 4.8441467823747528 2 39.083213425256183 10.401080119033374 2 72.630423799974537 6.7612560183019479 2 79.940748278770059 1.4 2 93.304193370211379 2.5010853714330268 2 10.825791106492606 1.4 2 21.66886705919967 1.4 2 30.121143424439257 1.4 2 78.114358876978187 1.4 2 81.174134447865882 1.4 2 91.581432574734094 4.2732155700248233 2 2.3091677495143994 1.4 2 13.554094830986772 9.4868567641636421 2 34.718465584208445 1.4 2 40.073876305421422 6.8883931992155292 2 66.976186385590395 4.4427903979523267 2 69.391644067258724 3.4341811814016405 2 83.324274671452557 1.4 2 86.902835808890174 5.3849535280022538 2 9.8839236288250696 8.3494934694048979 2 13.648675761224379 1.4 2 32.492866000166643 6.080501181963105 2 75.085837286231325 7.5841664766540173 2 81.469079443720844 11.486689903288172 2 91.63794588749407 7.1742507302977785 2 5.7572552906522168 3.3240352228009797 2 29.591327387455969 4.1449274809498551 2 64.348931946391986 1.4 2 65.822470790066347 2.4439665383107041 2 73.760389653022386 1.4 2 84.033393396457797 1.4 2 87.189345669991852 1.4 2 6.6313158302126931 2.6647906941585564 2 26.391929461147459 4.7387042808727378 2 31.276987778898537 6.0696841648023589 2 39.902712644346764 5.0340752655894319 2 75.529367275197799 1.4 2 82.358789351069959 5.3393641918267054 2 97.018060505809117 9.9096898675974998 2 4.779258346872763 2.8425864195215689 2 15.805648095783161 9.4069022158549984 2 36.687590220945424 3.5259393437034459 2 38.606108655563574 2.0009786462047385 2 69.10187943155907 7.3848579550349305 2 86.008803108898405 6.14306548966118 2 82.890421672473877 8.3359170488784304 2 9.549445210588523 4.5844407391001312 2 25.141834020467162 2.044065250940633 2 29.327851444588472 5.9146017210867239 2 70.813474469468986 5.8733350762544356 2 77.155570901382632 5.8174956533925402 2 94.212465016487684 3.5530210200203296 2 98.6 3.7202949694967207 2 2.6174520259024634 9.0499172086451427 2 26.634419294529518 1.4 2 37.571995680278235 6.2110933310808703 2 62.660169254869345 2.7612994245847089 2 71.0963635667093 1.4 2 83.869146497608227 3.4161863293551589 2 92.372520550947698 1.4 2 97.522235881466329 5.6097622054387148 2 </DataArray>