<?xml version="1.0" ?>
<VTKFile byte_order="LittleEndian" type="UnstructuredGrid" version="0.1">
<UnstructuredGrid>
<Piece NumberOfCells="0" NumberOfPoints="154">
<Points>
<DataArray NumberOfComponents="3" format="ascii" type="Float32">0 0 0 11.387905173472246 1.2 2 23.939419171248485 1 2 25.03560230874476 8.8602410919625321 2 37.866426991268746 7.5438894755340593 2 42.640555763668807 1 2 61.70829628571056 3.9710301863193314 2 66.213312360934154 3.6423555073378964 2 95.428567986684342 7.1348210330774124 2 10.942399353741454 5.7746888356871109 2 16.105172930641146 6.8270034985885983 2 28.621802455619488 1.2 2 42.633526676809154 2.1856251988660649 2 42.287258929761926 7.3571618323570895 2 63.70612387200444 8.0031270576500138 2 67.922694321328777 9.7762525652914558 2 98.6 6.9195165414197524 2 12.921288252649282 2.6964263662291299 2 15.314726900909966 3.4737716344539913 2 24.180289371957421 3.9114231051008859 2 38.878990475012664 1 2 66.226488658219026 1.4 2 99.0 8.797117839030669 2 23.592537887405744 9.8758849548274643 2 28.408556830976607 4.9278983572698056 2 39.829696242851917 1.4 2 63.79228355638007 2.5605025027330202 2 64.874244396417595 1 2 97.065083460103338 1.2 2 20.991964410633742 1.9078800975362833 2 26.619884672140838 3.2179372476665931 2 40.651306216109099 2.7224161687420296 2 62.099662791903775 1 2 13.320578416564146 3.6451958478487079 2 38.657133650397228 5.4443686482186964 2 43.316015690042143 2.6676638647358049 2 65.388215668554622 7.0582269148925025 2 99.0 4.6823332264055315 2 10.652756243269645 4.8432335337246046 2 15.874256932949006 2.5730226914138936 2 24.830104691223351 3.0123655031487511 2 15.797893666022444 1.4 2 22.832549249687951 2.7057827548162829 2 27.687031137928773 3.1923758603582191 2 39.11186051128972 6.5793384120296361 2 65.247007740862315 5.4175038131768156 2 66.910486399538271 5.6569131996407629 2 99.0 2.9724900228293469 2 23.35561195974217 1.2 2 43.672447842909932 1 2 64.09800629385461 4.2479419267957095 2 41.75298352944985 6.3007478604887313 2 41.121054674726267 10.350816268063749 2 99.0 5.7563567697261018 2 12.145744597013024 1 2 14.828226200252427 2.6118906794044565 2 24.266719759810449 5.5601291088690301 2 13.367667285043439 7.5295766041038465 2 24.515201587308983 7.1733928543133914 2 62.123378494879887 2.0894625457993645 2 65.244636846224466 3.5387179196867464 2 20.725730370202765 2.9679519726472283 2 39.866038141547421 3.2091144612804987 2 61.060565518421711 1.4 2 12.505913879318685 5.685699178869454 2 17.111970639646341 8.6225273127245945 2 40.408529410997204 1 2 66.568418436420188 9.4056386432970669 2 99.0 1 2 25.293868339291215 1 2 15.208524861287081 1 2 21.423828444907453 5.9272124624520233 2 27.281632972434039 1 2 40.717436847996098 5.8817407214744701 2 64.493870515422074 3.4031784381217882 2 67.90554160792027 8.6797042560023812 2 23.746649654809641 2.5641883200409228 2 41.649048044535249 1 2 61.006326497286544 4.6699351816787811 2 41.427231826951981 3.522493031247282 2 63.919504812608459 5.8294147946392396 2 14.90534299889134 7.7190498885142729 2 23.190159997325175 6.9138024519071903 2 63.762701203377993 1.2 2 20.787040489025635 1 2 40.998332272600102 1.4 2 62.673657078615619 1 2 13.500685565422836 4.6832314876037628 2 43.081921717261785 4.1273724478405143 2 66.958399840742942 7.3463606317244015 2 16.523799350697736 3.2384684918370468 2 16.336157292818683 1 2 22.696530830007038 1.4 2 39.278560837111733 8.3957239631474572 2 65.665707181963853 4.5211113569487749 2 22.097656412542868 1 2 44.851003346088845 1.4 2 63.150464835112807 4.1504498121148945 2 20.669360533261369 3.9850788003087931 2 42.234907847519693 4.2735927546370087 2 40.955045901517117 7.5051751316255908 2 65.342911271826367 10.625425866424832 2 13.978041779550868 2.7772436595202241 2 44.216218159420087 2.1335860465285834 2 23.163227911675758 5.7983729801555874 2 63.254546710248853 1 2 14.726389055239139 11.299331128214261 2 43.258101785625662 6.6531705860301047 2 67.43152656646069 11.313995090489694 2 99.0 1 2 19.269647367508124 1.2 2 61.090844948404609 2.7455473128042609 2 14.011600283268335 1 2 20.735250375902051 8.1591339192761385 2 40.767439998205461 4.2226368287993772 2 63.4129526484801 3.2347312454623407 2 43.16465798055664 1 2 62.545516127308751 3.7481088727158944 2 41.570510867257937 2.5450056121772042 2 42.171322065971488 8.6157914374171334 2 63.77077869260205 6.974417610632508 2 14.378659826412427 3.8384742279465343 2 13.707346230592153 5.9505272664969526 2 21.873956057647533 2.6114148714053687 2 61.606899502479621 1.2 2 21.465891483086896 9.4334651028562941 2 42.47258944529792 3.0653853633878425 2 65.132126716279132 8.4595659152996472 2 22.319305545627124 4.9378765709751749 2 44.2694974502026 1.2 2 40.609302923875838 8.8803096494254099 2 61.790932810844559 2.9192037410712852 2 19.587783436302168 2.7700570654514469 2 60.518361267916099 1.2 2 17.643946931993813 10.281083198467293 2 60.103062962533663 2.4070158943928357 2 64.706964978831849 6.4946944235399728 2 20.21136687049086 1.8073088134454851 2 63.068718071828009 1.9954158436591269 2 44.062242418895615 4.5600477437526772 2 62.17501841089851 4.842138564732501 2 17.025436814153945 1.2 2 63.384726145357405 5.0244085898682398 2 21.882478947547114 3.7166737835021602 2 42.400910031190712 5.4913203651470024 2 64.397822581751043 9.3309081997942158 2 43.964179498756621 3.3275437937787848 2 23.123013640678316 3.8446060550550119 2 17.052712726033644 2.3213273777172079 2 43.517956394777151 5.5416832073187168 2 62.747555372486346 5.6351681348934219 2 20.006679395963822 1 2 60.517199678054396 3.5543863362387182 2 21.623832114917231 7.181109847326888 2 </DataArray>
</Points>
<Cells>
<DataArray Name="connectivity" format="ascii" type="Int32">0</DataArray>
<DataArray Name="offsets" format="ascii" type="Int32">0</DataArray>
<DataArray Name="types" format="ascii" type="UInt8">1</DataArray>
</Cells>
<PointData>
<DataArray Name="Points" NumberOfComponents="3" format="ascii" type="Float32">0 0 0 11.387905173472246 1.2 2 23.939419171248485 1 2 25.03560230874476 8.8602410919625321 2 37.866426991268746 7.5438894755340593 2 42.640555763668807 1 2 61.70829628571056 3.9710301863193314 2 66.213312360934154 3.6423555073378964 2 95.428567986684342 7.1348210330774124 2 10.942399353741454 5.7746888356871109 2 16.105172930641146 6.8270034985885983 2 28.621802455619488 1.2 2 42.633526676809154 2.1856251988660649 2 42.287258929761926 7.3571618323570895 2 63.70612387200444 8.0031270576500138 2 67.922694321328777 9.7762525652914558 2 98.6 6.9195165414197524 2 12.921288252649282 2.6964263662291299 2 15.314726900909966 3.4737716344539913 2 24.180289371957421 3.9114231051008859 2 38.878990475012664 1 2 66.226488658219026 1.4 2 99.0 8.797117839030669 2 23.592537887405744 9.8758849548274643 2 28.408556830976607 4.9278983572698056 2 39.829696242851917 1.4 2 63.79228355638007 2.5605025027330202 2 64.874244396417595 1 2 97.065083460103338 1.2 2 20.991964410633742 1.9078800975362833 2 26.619884672140838 3.2179372476665931 2 40.651306216109099 2.7224161687420296 2 62.099662791903775 1 2 13.320578416564146 3.6451958478487079 2 38.657133650397228 5.4443686482186964 2 43.316015690042143 2.6676638647358049 2 65.388215668554622 7.0582269148925025 2 99.0 4.6823332264055315 2 10.652756243269645 4.8432335337246046 2 15.874256932949006 2.5730226914138936 2 24.830104691223351 3.0123655031487511 2 15.797893666022444 1.4 2 22.832549249687951 2.7057827548162829 2 27.687031137928773 3.1923758603582191 2 39.11186051128972 6.5793384120296361 2 65.247007740862315 5.4175038131768156 2 66.910486399538271 5.6569131996407629 2 99.0 2.9724900228293469 2 23.35561195974217 1.2 2 43.672447842909932 1 2 64.09800629385461 4.2479419267957095 2 41.75298352944985 6.3007478604887313 2 41.121054674726267 10.350816268063749 2 99.0 5.7563567697261018 2 12.145744597013024 1 2 14.828226200252427 2.6118906794044565 2 24.266719759810449 5.5601291088690301 2 13.367667285043439 7.5295766041038465 2 24.515201587308983 7.1733928543133914 2 62.123378494879887 2.0894625457993645 2 65.244636846224466 3.5387179196867464 2 20.725730370202765 2.9679519726472283 2 39.866038141547421 3.2091144612804987 2 61.060565518421711 1.4 2 12.505913879318685 5.685699178869454 2 17.111970639646341 8.6225273127245945 2 40.408529410997204 1 2 66.568418436420188 9.4056386432970669 2 99.0 1 2 25.293868339291215 1 2 15.208524861287081 1 2 21.423828444907453 5.9272124624520233 2 27.281632972434039 1 2 40.717436847996098 5.8817407214744701 2 64.493870515422074 3.4031784381217882 2 67.90554160792027 8.6797042560023812 2 23.746649654809641 2.5641883200409228 2 41.649048044535249 1 2 61.006326497286544 4.6699351816787811 2 41.427231826951981 3.522493031247282 2 63.919504812608459 5.8294147946392396 2 14.90534299889134 7.7190498885142729 2 23.190159997325175 6.9138024519071903 2 63.762701203377993 1.2 2 20.787040489025635 1 2 40.998332272600102 1.4 2 62.673657078615619 1 2 13.500685565422836 4.6832314876037628 2 43.081921717261785 4.1273724478405143 2 66.958399840742942 7.3463606317244015 2 16.523799350697736 3.2384684918370468 2 16.336157292818683 1 2 22.696530830007038 1.4 2 39.278560837111733 8.3957239631474572 2 65.665707181963853 4.5211113569487749 2 22.097656412542868 1 2 44.851003346088845 1.4 2 63.150464835112807 4.1504498121148945 2 20.669360533261369 3.9850788003087931 2 42.234907847519693 4.2735927546370087 2 40.955045901517117 7.5051751316255908 2 65.342911271826367 10.625425866424832 2 13.978041779550868 2.7772436595202241 2 44.216218159420087 2.1335860465285834 2 23.163227911675758 5.7983729801555874 2 63.254546710248853 1 2 14.726389055239139 11.299331128214261 2 43.258101785625662 6.6531705860301047 2 67.43152656646069 11.313995090489694 2 99.0 1 2 19.269647367508124 1.2 2 61.090844948404609 2.7455473128042609 2 14.011600283268335 1 2 20.735250375902051 8.1591339192761385 2 40.767439998205461 4.2226368287993772 2 63.4129526484801 3.2347312454623407 2 43.16465798055664 1 2 62.545516127308751 3.7481088727158944 2 41.570510867257937 2.5450056121772042 2 42.171322065971488 8.6157914374171334 2 63.77077869260205 6.974417610632508 2 14.378659826412427 3.8384742279465343 2 13.707346230592153 5.9505272664969526 2 21.873956057647533 2.6114148714053687 2 61.606899502479621 1.2 2 21.465891483086896 9.4334651028562941 2 42.47258944529792 3.0653853633878425 2 65.132126716279132 8.4595659152996472 2 22.319305545627124 4.9378765709751749 2 44.2694974502026 1.2 2 40.609302923875838 8.8803096494254099 2 61.790932810844559 2.9192037410712852 2 19.587783436302168 2.7700570654514469 2 60.518361267916099 1.2 2 17.643946931993813 10.281083198467293 2 60.103062962533663 2.4070158943928357 2 64.706964978831849 6.4946944235399728 2 20.21136687049086 1.8073088134454851 2 63.068718071828009 1.9954158436591269 2 44.062242418895615 4.5600477437526772 2 62.17501841089851 4.842138564732501 2 17.025436814153945 1.2 2 63.384726145357405 5.0244085898682398 2 21.882478947547114 3.7166737835021602 2 42.400910031190712 5.4913203651470024 2 64.397822581751043 9.3309081997942158 2 43.964179498756621 3.3275437937787848 2 23.123013640678316 3.8446060550550119 2 17.052712726033644 2.3213273777172079 2 43.517956394777151 5.5416832073187168 2 62.747555372486346 5.6351681348934219 2 20.006679395963822 1 2 60.517199678054396 3.5543863362387182 2 21.623832114917231 7.181109847326888 2 </DataArray>
<DataArray Name="forces" NumberOfComponents="3" format="ascii" type="Float32">0 0 0 0.072973120862690144 -2.9372018412897436 0.0 -0.11413405286826378 -3.1780779389252203 0.0 0.030085164603666059 1.1590844089958316 0.0 -0.13758746480781969 1.1752825736554549 0.0 -0.42704016035029313 -2.9453442115215571 0.0 0.11789150872501775 0.39417212538923196 0.0 -0.060601190109785208 0.8395674866913132 0.0 0.18102413468847708 0.59678268787573874 0.0 0.26111574167637808 0.49980287991602013 0.0 0.01901496103489949 1.2477230016415617 0.0 -0.10393375400656901 -3.6479768402560282 0.0 0.10587492941749793 0.41624564367930056 0.0 -0.15058460616800867 0.77555657055352856 0.0 -0.026356218261229025 1.2191453266541135 0.0 -0.24306734345649025 0.4878152619388626 0.0 2.0377307380271286 1.3913285437789731 0.0 -0.075615330993651308 0.32940621007802334 0.0 -0.10309826987559106 0.50336579991931829 0.0 -0.027395215781223003 1.2280048383193125 0.0 0.025161078324565322 -3.916852673120208 0.0 -0.28404482857647007 -3.4879841465051484 0.0 0.56566623775591995 0.55019525421724058 0.0 0.11953762761824147 0.42193064560701155 0.0 -0.15560321105736741 0.41372542675775692 0.0 0.088871071107828437 -3.3316729574221808 0.0 -0.081073241640016835 0.58330563104200572 0.0 -0.15058880270488434 -4.229286544429443 0.0 0.00085306132395102097 -4.2244424285844557 0.0 -0.11687363774464349 0.50919925438961422 0.0 -0.21626420006519381 0.5007001301954539 0.0 0.032002389248914298 0.87753581389792024 0.0 0.098400115366459651 -3.3637937094945358 0.0 0.22226860228848436 0.35280417386730345 0.0 0.070451420693143363 0.73641114943786667 0.0 -0.24125589823216032 0.62224484095013577 0.0 0.11955386863097861 0.45866190722818234 0.0 2.424132080641261 0.59425463513224019 0.0 0.16297352628023076 0.87990325553839255 0.0 -0.10182558499408012 0.53253572436118668 0.0 -0.24432719373357895 0.52026334262601004 0.0 0.25241153571171171 -1.3792166564926145 0.0 -0.04912004853299512 0.69663179790064178 0.0 -0.20024770005848669 0.47977248225903435 0.0 -0.051650131386660081 0.512261740930823 0.0 -0.16766264323224933 0.59196226567469856 0.0 -0.037704676584503639 0.94048399411939554 0.0 3.4131672102927544 0.5133339397429082 0.0 -0.12902227399374444 -2.192043201004382 0.0 -0.023551255745117572 -3.0338214465845823 0.0 0.0887778474464965 0.42668384405175008 0.0 -0.11013289138398571 0.44428179136748963 0.0 -0.11687296017703797 0.83645397889382189 0.0 1.840386122005305 0.68128746010741048 0.0 0.0026062462100099326 -4.1053082450932088 0.0 0.12103418352929585 0.64122481560497124 0.0 -0.1348148723537651 0.52623090751286394 0.0 0.18440623993946514 0.76177180161962454 0.0 0.030837937732358101 0.89732770258767358 0.0 0.16275951930143073 0.44674064381695167 0.0 -0.0070342979595273691 0.5360346225170084 0.0 0.050287706414626723 0.72890757070156054 0.0 -0.030294995003985359 0.44391011607641573 0.0 0.14787925851592865 -2.8126331639900268 0.0 0.1158307152035416 0.68675369444843049 0.0 0.16805420967551243 0.4879311217986384 0.0 0.053605407182949733 -3.8092905554214571 0.0 -0.17222635683362114 0.56598549376411023 0.0 3.0428331502232884 -2.6832683437559668 0.0 -0.30009246695881553 -3.6204666889983259 0.0 0.39804020952177022 -3.1725860383521662 0.0 0.028701160864948866 1.1829641207934978 0.0 -0.2179921137200389 -3.7729610860412484 0.0 0.020944937881002379 0.55734603440712005 0.0 0.096614872486051828 0.72399694271243542 0.0 -0.13307109584328397 0.51856285659285795 0.0 -0.021141662422455965 0.45645475214501641 0.0 -0.15080953312011269 -3.4550371929209591 0.0 0.16289038772639425 1.2346680366472449 0.0 -0.1947252142767133 1.1185503129249101 0.0 0.022184229929119281 0.49623422391409866 0.0 0.052809431906848003 1.0859455253497674 0.0 0.11475557613854093 0.41357482902352177 0.0 -0.0033291574509299315 -3.2259621819921032 0.0 0.065378576182475667 -3.1523066350826836 0.0 -0.069510312264084217 -2.0982635179432498 0.0 0.091943598411999825 -3.0024319838934539 0.0 0.037512447938773175 1.3174840760744024 0.0 -0.27475205445732881 0.84823902873394408 0.0 -0.088024270446056652 0.877138789883526 0.0 0.095327896292566328 0.71430299737066782 0.0 0.21109640973492938 -3.0086438011408103 0.0 -0.046954243074316476 -1.6903724923387466 0.0 -0.06876227192898049 0.73014470606569215 0.0 0.007398142747472549 0.62119149815270025 0.0 -0.1412649924349838 -3.3650822354282615 0.0 -0.14885977207133894 -3.2131229653603013 0.0 0.063159472876576667 0.62373359781970228 0.0 -0.012324493512439083 1.208841882402272 0.0 -0.26958094299842256 0.60955488343733166 0.0 -0.17301563955074362 0.45878692456947012 0.0 0.010964303499543304 1.3593504489261101 0.0 0.036052016056949271 0.40256983879106556 0.0 -0.55253133561101464 0.93647401126755359 0.0 -0.16904954509748421 0.75716613715194869 0.0 0.022142011234613845 -3.4982899275503927 0.0 0.020200994979223771 0.39553857230314626 0.0 -0.25288336481391088 1.1564953453948306 0.0 0.054399523064463551 1.3144220020841555 0.0 3.0428331502232884 -2.6832683437559668 0.0 0.038960787609642722 -2.9901447485297101 0.0 0.2512088007819635 0.7823092995899823 0.0 0.29131733132846294 -3.4957673255328068 0.0 -0.062075342317574944 0.31780372736536444 0.0 -0.13742975898987297 0.43234873894511805 0.0 0.061781207934751059 0.56540175439134088 0.0 -0.29812920417844824 -2.5909818883045928 0.0 0.080995989919304318 0.55377492416117946 0.0 0.076095404288101492 0.68664042032069539 0.0 -0.28300783550668945 1.1450011437040044 0.0 0.17758920032292885 0.81908391517583623 0.0 -0.10636301783633277 0.61728213674959886 0.0 0.18107790711406774 0.80118132412697673 0.0 -0.034735667801582049 0.43031332457952531 0.0 0.1462124460501707 -3.407272428789196 0.0 0.075811596624727695 0.50277103059501316 0.0 -0.18094322186685918 0.61523401073214468 0.0 -0.03861166254334758 0.38536046391184464 0.0 0.035948868301988422 1.152451525703821 0.0 -0.16077928187289794 -3.6634863147872627 0.0 -0.1594661783573334 0.51145553276415412 0.0 0.230452517829284 0.42450063290583567 0.0 0.053901494237371395 1.2593916625656831 0.0 0.17654181510188657 -4.2319108728356039 0.0 -0.056760999446730243 0.57309546449429261 0.0 0.29733973925918555 1.1108171576444861 0.0 0.084883468983383975 0.54167619798424549 0.0 -0.022685737403407458 0.2751125047955103 0.0 0.11567093055533806 0.37512467120720494 0.0 -0.29396789184613892 1.1488903064777869 0.0 0.035607774970051645 0.82847405607977076 0.0 0.21421538060776324 -2.9213018075372843 0.0 0.16193855620977204 0.49009548291864125 0.0 -0.014722514893325878 1.2513104700931847 0.0 -0.21712699820178516 0.49424871488722222 0.0 0.17388873866562515 0.43882460126793088 0.0 -0.25319116339492836 1.1663909858466524 0.0 -0.078107179910419683 1.0312312038493998 0.0 -0.050968919807457748 1.1353922430134102 0.0 -0.15383522987074971 0.77536967528826461 0.0 0.17943368418513583 0.48307402375639075 0.0 0.055698446264512591 -3.2472532202119759 0.0 0.085692532693375012 1.1400225573840446 0.0 0.066350835691640686 0.4431740352068298 0.0 </DataArray>
<DataArray Name="radii" format="ascii" type="Float32">0 1.2 1 1.4 1.4 1 1 1.2 1 1 1.4 1.2 1 1.2 1.4 1 1.4 1 1 1.4 1 1.4 1 1 1 1.4 1 1 1.2 1 1 1.2 1 1 1.2 1.2 1 1 1.2 1 1.2 1.4 1.2 1 1 1 1.2 1 1.2 1 1 1 1.2 1 1 1.2 1 1.2 1.2 1 1 1.2 1 1.4 1.2 1 1 1 1 1 1 1.4 1 1 1.2 1 1 1 1.4 1.4 1 1.4 1 1.2 1 1.4 1 1.4 1.2 1.2 1.2 1 1.4 1.2 1 1 1.4 1 1.4 1 1 1.4 1 1.4 1.2 1 1 1.4 1.4 1 1.2 1.2 1 1 1 1 1 1 1.2 1.4 1.2 1.2 1.2 1 1.2 1.2 1 1 1.4 1.2 1 1 1.4 1.2 1 1.4 1 1 1 1.4 1.2 1.2 1 1.4 1 1 1.4 1.4 1.4 1.2 1 1 1.4 1 </DataArray>
</PointData>
<CellData/>
</Piece>
</UnstructuredGrid>
</VTKFile>
