<?xml version="1.0" ?>
<VTKFile byte_order="LittleEndian" type="UnstructuredGrid" version="0.1">
<UnstructuredGrid>
<Piece NumberOfCells="0" NumberOfPoints="86">
<Points>
<DataArray NumberOfComponents="3" format="ascii" type="Float32">7.924519276616782 1.2 2 30.987545939996551 1.2 2 76.972367880924708 1.2 2 79.585271749581509 3.1083559460467973 2 87.03464073702709 4.9232369737109209 2 1.2 1.2 2 33.581735092740146 2.9207487166362416 2 69.190318514885817 1.2 2 84.864153795040252 1.2 2 86.030651316927461 8.223577731489959 2 6.5688970370043673 7.0998112510540334 2 31.475956511604736 8.3308476344276787 2 75.58143903656962 8.6356867443575851 2 79.344507880000705 6.9997037759752283 2 91.50657532558543 5.0182966825011883 2 3.4179180660106474 5.0935038102358403 2 34.156514070906979 4.8873204432890072 2 71.186105779030669 1.2 2 81.617029915180723 7.0565847854034596 2 86.94377476660803 1.2 2 5.7104492194575025 1.2 2 30.046312970524141 3.2901630630363741 2 74.594089904392845 3.0495812896950376 2 78.33987360652965 4.9406597198751472 2 89.281617992033986 8.8958819360868109 2 3.4854637937992283 1.2 2 37.549321116868619 3.5798046097599947 2 71.289325978640818 5.0880419015794001 2 85.854755061822502 3.166174915704898 2 83.752202500140797 7.7229827871048471 2 7.8751344759530673 5.0349028751613885 2 29.263524503763048 7.5942513030686154 2 71.599006600487044 9.0950830453687459 2 76.009734858015065 4.6809258252111068 2 91.334379593627773 1.2 2 93.533623241578454 1.2 2 1.2 4.724806179583215 2 36.273029046615584 7.579551974458413 2 73.505135335049332 4.8730603956742771 2 80.836223334553594 1.2 2 90.28573389889371 3.0662453518261801 2 9.0177819146998903 3.1404721221963654 2 32.798702408418642 1.2 2 77.335101221114158 3.0256390643165543 2 78.853421133472906 1.2 2 89.206712335875963 4.9418152751296009 2 2.3599558326455505 3.0059889212201658 2 11.131749872239199 7.4061065453388197 2 34.801361063973182 1.2 2 69.012438296593672 5.3083575838009596 2 70.139211950613515 3.2071814198994213 2 82.830557066085632 1.2 2 87.962950849724507 6.9414917261488647 2 7.9329605591986176 9.0119703148329418 2 32.631798740565081 6.3883930951782029 2 74.828628833242263 6.5370446211906295 2 77.943393990818365 8.8695983562867813 2 90.283039941010131 6.866653189387919 2 5.6383368714792343 5.0575349659548507 2 31.992563560699594 4.112917066327415 2 73.225442638325347 1.2 2 83.832228354530912 3.1894765887914063 2 88.059505811596125 3.0154495636156002 2 6.8019459314863475 3.0890620601856713 2 26.552143846264229 4.5886775036643801 2 30.452451794489058 5.6400906225275182 2 75.178571910208333 1.2 2 80.629669178026901 5.0663416910996881 2 92.455860164263797 7.5064663249675165 2 4.5796341336139239 3.1043803917820458 2 35.685261309197926 3.0372710738832884 2 70.361487158869537 7.1195463045913092 2 85.213317526023388 5.9844234160780534 2 83.04193487772919 5.243032084295403 2 8.9395117673472395 6.9268254022321214 2 27.166693940533516 6.7160543172724259 2 72.642623306509208 7.0059719698398339 2 77.042614231798979 6.7452859797344615 2 92.499775130576012 3.0920017175642869 2 94.67905054037 3.1492007972514977 2 1.9256069307009873 6.9000194928453515 2 36.116605197475266 5.2861024244524382 2 72.308652394084447 3.0805702823176544 2 81.767558946800875 3.2143474776706915 2 89.137111362257656 1.2 2 95.712618420591198 5.1420978779054529 2 </DataArray>
</Points>
<Cells>
<DataArray Name="connectivity" format="ascii" type="Int32">0</DataArray>
<DataArray Name="offsets" format="ascii" type="Int32">0</DataArray>
<DataArray Name="types" format="ascii" type="UInt8">1</DataArray>
</Cells>
<PointData>
<DataArray Name="Points" NumberOfComponents="3" format="ascii" type="Float32">7.924519276616782 1.2 2 30.987545939996551 1.2 2 76.972367880924708 1.2 2 79.585271749581509 3.1083559460467973 2 87.03464073702709 4.9232369737109209 2 1.2 1.2 2 33.581735092740146 2.9207487166362416 2 69.190318514885817 1.2 2 84.864153795040252 1.2 2 86.030651316927461 8.223577731489959 2 6.5688970370043673 7.0998112510540334 2 31.475956511604736 8.3308476344276787 2 75.58143903656962 8.6356867443575851 2 79.344507880000705 6.9997037759752283 2 91.50657532558543 5.0182966825011883 2 3.4179180660106474 5.0935038102358403 2 34.156514070906979 4.8873204432890072 2 71.186105779030669 1.2 2 81.617029915180723 7.0565847854034596 2 86.94377476660803 1.2 2 5.7104492194575025 1.2 2 30.046312970524141 3.2901630630363741 2 74.594089904392845 3.0495812896950376 2 78.33987360652965 4.9406597198751472 2 89.281617992033986 8.8958819360868109 2 3.4854637937992283 1.2 2 37.549321116868619 3.5798046097599947 2 71.289325978640818 5.0880419015794001 2 85.854755061822502 3.166174915704898 2 83.752202500140797 7.7229827871048471 2 7.8751344759530673 5.0349028751613885 2 29.263524503763048 7.5942513030686154 2 71.599006600487044 9.0950830453687459 2 76.009734858015065 4.6809258252111068 2 91.334379593627773 1.2 2 93.533623241578454 1.2 2 1.2 4.724806179583215 2 36.273029046615584 7.579551974458413 2 73.505135335049332 4.8730603956742771 2 80.836223334553594 1.2 2 90.28573389889371 3.0662453518261801 2 9.0177819146998903 3.1404721221963654 2 32.798702408418642 1.2 2 77.335101221114158 3.0256390643165543 2 78.853421133472906 1.2 2 89.206712335875963 4.9418152751296009 2 2.3599558326455505 3.0059889212201658 2 11.131749872239199 7.4061065453388197 2 34.801361063973182 1.2 2 69.012438296593672 5.3083575838009596 2 70.139211950613515 3.2071814198994213 2 82.830557066085632 1.2 2 87.962950849724507 6.9414917261488647 2 7.9329605591986176 9.0119703148329418 2 32.631798740565081 6.3883930951782029 2 74.828628833242263 6.5370446211906295 2 77.943393990818365 8.8695983562867813 2 90.283039941010131 6.866653189387919 2 5.6383368714792343 5.0575349659548507 2 31.992563560699594 4.112917066327415 2 73.225442638325347 1.2 2 83.832228354530912 3.1894765887914063 2 88.059505811596125 3.0154495636156002 2 6.8019459314863475 3.0890620601856713 2 26.552143846264229 4.5886775036643801 2 30.452451794489058 5.6400906225275182 2 75.178571910208333 1.2 2 80.629669178026901 5.0663416910996881 2 92.455860164263797 7.5064663249675165 2 4.5796341336139239 3.1043803917820458 2 35.685261309197926 3.0372710738832884 2 70.361487158869537 7.1195463045913092 2 85.213317526023388 5.9844234160780534 2 83.04193487772919 5.243032084295403 2 8.9395117673472395 6.9268254022321214 2 27.166693940533516 6.7160543172724259 2 72.642623306509208 7.0059719698398339 2 77.042614231798979 6.7452859797344615 2 92.499775130576012 3.0920017175642869 2 94.67905054037 3.1492007972514977 2 1.9256069307009873 6.9000194928453515 2 36.116605197475266 5.2861024244524382 2 72.308652394084447 3.0805702823176544 2 81.767558946800875 3.2143474776706915 2 89.137111362257656 1.2 2 95.712618420591198 5.1420978779054529 2 </DataArray>
<DataArray Name="forces" NumberOfComponents="3" format="ascii" type="Float32">-0.029171556788869166 -0.32848205082310211 0.0 -0.01995737920225138 -0.097855530104624971 0.0 -0.019092169842909956 -0.5352641037625947 0.0 0.015063609554570978 0.11542608047055056 0.0 -0.0032230279772777481 0.13260389956949584 0.0 -0.24835845968117926 -0.21333891831041588 0.0 -0.017250122404781298 0.099759615991751122 0.0 -0.00061910151429396543 -0.21091829696872114 0.0 0.030593599569091828 -0.32108910969424476 0.0 0.0067995192104425735 0.080709349324101731 0.0 0.013290051067159955 0.102646027099406 0.0 -0.0065481717358529812 0.1433489985139888 0.0 0.024288710273842343 0.169057278938154 0.0 -0.0017010305295318273 0.11999094338015778 0.0 0.023764183620332321 0.14776212827097746 0.0 -0.01610032151535206 0.12230053804806855 0.0 -0.011523285060080435 0.10948955486660684 0.0 -0.0019295032258104527 -0.30603046684770052 0.0 -0.0082795241839947603 0.19541460060439628 0.0 0.048057688890016159 -0.36538158366011964 0.0 -0.026474123596708005 -0.3533665067832702 0.0 -0.0016007673315241015 0.09780079516691817 0.0 0.018779002430169778 0.097880087074748032 0.0 0.011468752602251109 0.12230598615386495 0.0 -0.038129839720745184 0.16201932928053761 0.0 -0.018621470645400276 -0.41377239084258238 0.0 -0.0057435127969268224 0.12238458089988113 0.0 0.01304289960345302 0.11292558371941894 0.0 0.046488183478018613 0.083055643903037241 0.0 0.0099076147781507196 0.13210451253255809 0.0 -0.020238247280757779 0.11684751419443121 0.0 -0.0062364419038082874 0.12470387855310362 0.0 0.0093143533744648767 0.11793429647593513 0.0 -0.0067841539137363654 0.14463280385779664 0.0 0.035861837367631239 -0.38544318606713202 0.0 0.032235806805162665 -0.33871487515319898 0.0 -0.36408146039449873 0.14577189492106724 0.0 -0.025746048996945076 0.12909920674820455 0.0 0.036283035949202236 0.11733687210146455 0.0 -0.0005747762570620929 -0.26748162188321067 0.0 0.037011071715093671 0.11982665105581616 0.0 -0.029532533412844952 0.098267935983086876 0.0 -0.019946265188231893 -0.46570988676995767 0.0 0.0048165542281073566 0.11494945458082552 0.0 -0.010589067041363882 -0.36110438849128956 0.0 0.021394149383013636 0.13261029685120654 0.0 -0.029823015607109427 0.11319911457132376 0.0 0.0038352684802200887 0.091590882348154018 0.0 -0.022299545918327585 -0.51853079109633216 0.0 0.018672447274016613 0.095150606329383755 0.0 0.012928789019697046 0.097600344722774526 0.0 0.018371060807893719 -0.26806825715646598 0.0 0.015918267612055975 0.12500107115633177 0.0 -0.0075658593879315943 0.12035229321249603 0.0 -0.013856708587025604 0.13000285002751633 0.0 -0.010762805017248328 0.17500078740801422 0.0 0.024062550814571315 0.14083448731449807 0.0 0.0023389414032382316 0.16205132488399865 0.0 -0.022263954327117391 0.11300250188632319 0.0 -0.0070942931241102236 0.12898991740985655 0.0 -0.011725144222893669 -0.36179208336911961 0.0 0.035338906416840399 0.10810885193709444 0.0 0.041372594738295049 0.12000750341605412 0.0 -0.029578053682001559 0.10536221533865889 0.0 0.003776706958231707 0.094774051062396142 0.0 -0.016218280015515257 0.11346864961217396 0.0 -0.021983524039138613 -0.43689620384943129 0.0 0.04004031378782287 0.13599327579747855 0.0 0.022205806723912966 0.081427378176574083 0.0 -0.030068160669198235 0.10561794540900041 0.0 -0.010884375636713829 0.10563510883830593 0.0 -0.030372174035729282 0.12745595533004395 0.0 -0.074412746925911655 0.070060545763648119 0.0 -0.11626165475159132 0.079128384582365027 0.0 0.0061795276590382517 0.11620148176520505 0.0 -0.0075160579896587573 0.1042025973445292 0.0 -0.025275541596067 0.10574725417791772 0.0 -0.0010725273811217351 0.1414097987160946 0.0 0.025325122006158191 0.11568754381872273 0.0 0.024718939808269738 0.092301926640020349 0.0 -0.0041819997282956448 0.14734570080456377 0.0 -0.013282008052309689 0.11965592395047624 0.0 0.015467907450065099 0.11024506115154359 0.0 0.017242185590924317 0.093754635089564442 0.0 0.042902395195544146 -0.4352850878375143 0.0 0.0071077675439808197 0.10176744362930334 0.0 </DataArray>
<DataArray Name="radii" format="ascii" type="Float32">1.2 1.2 1.2 1.2 1.2 1.2 1.2 1.2 1.2 1.2 1.2 1.2 1.2 1.2 1.2 1.2 1.2 1.2 1.2 1.2 1.2 1.2 1.2 1.2 1.2 1.2 1.2 1.2 1.2 1.2 1.2 1.2 1.2 1.2 1.2 1.2 1.2 1.2 1.2 1.2 1.2 1.2 1.2 1.2 1.2 1.2 1.2 1.2 1.2 1.2 1.2 1.2 1.2 1.2 1.2 1.2 1.2 1.2 1.2 1.2 1.2 1.2 1.2 1.2 1.2 1.2 1.2 1.2 1.2 1.2 1.2 1.2 1.2 1.2 1.2 1.2 1.2 1.2 1.2 1.2 1.2 1.2 1.2 1.2 1.2 1.2 </DataArray>
</PointData>
<CellData/>
</Piece>
</UnstructuredGrid>
</VTKFile>
