<?xml version="1.0" ?>
<VTKFile byte_order="LittleEndian" type="UnstructuredGrid" version="0.1">
<UnstructuredGrid>
<Piece NumberOfCells="0" NumberOfPoints="51">
<Points>
<DataArray NumberOfComponents="3" format="ascii" type="Float32">0 0 0 10.857596620546943 1.2 2 24.35076317073263 1 2 25.083321251463619 8.2390741775981748 2 37.933869761871748 6.8932488668815752 2 67.715130685633369 3.8159571850205647 2 93.958991029634362 5.8789395704946488 2 9.8773936028483895 5.9041751349725216 2 28.713429394961846 1.2 2 68.569417222205928 9.2852936058681692 2 98.6 6.6943213270545208 2 12.006494210485045 3.0136659143140467 2 23.259996571527836 4.4453196061089146 2 37.160107784934809 1 2 67.564549282003654 1.4 2 96.368083532782364 8.4944800175805533 2 29.309782165219737 5.183525940213614 2 38.624295278785418 1.4 2 64.045768694594344 2.3994488965611915 2 64.93996456033652 1 2 96.341885596451021 1.2 2 26.672131426320178 3.5277498644142509 2 12.987038414697544 4.6602223698210485 2 38.418037251946494 4.8818461466138716 2 99.0 4.4583721724305105 2 9.6994413224586147 4.1826015441887066 2 24.958927744876927 3.801353180884723 2 28.316273372956587 3.5737232771351928 2 40.096966351355015 6.1509819299158393 2 67.073664344514015 5.4978473098796687 2 97.655821270232522 3.2343768749989787 2 97.290203894992658 4.9558274517732741 2 12.17672113397086 1 2 25.051328014633313 5.9154159434178695 2 13.528505473217413 7.2375130266069796 2 65.464859934457095 2.5612448276650048 2 40.488394091234717 2.4304488924007974 2 11.809216904675466 6.1793918636646001 2 40.341375412364506 1 2 99.0 1 2 25.842382175363188 1 2 14.784820803316816 1.6862965162013794 2 27.216388079631599 1 2 41.86069928318085 5.3745455708681282 2 67.943696073577058 7.6403019052690677 2 23.632031864464608 2.4371090899312238 2 65.782779180633682 4.2208328634925874 2 13.883628567513977 3.2468472869066427 2 97.714727789080982 1.4704317526288733 2 13.743500037505459 1 2 41.303289174907448 3.7767137933802024 2 </DataArray>
</Points>
<Cells>
<DataArray Name="connectivity" format="ascii" type="Int32">0</DataArray>
<DataArray Name="offsets" format="ascii" type="Int32">0</DataArray>
<DataArray Name="types" format="ascii" type="UInt8">1</DataArray>
</Cells>
<PointData>
<DataArray Name="Points" NumberOfComponents="3" format="ascii" type="Float32">0 0 0 10.857596620546943 1.2 2 24.35076317073263 1 2 25.083321251463619 8.2390741775981748 2 37.933869761871748 6.8932488668815752 2 67.715130685633369 3.8159571850205647 2 93.958991029634362 5.8789395704946488 2 9.8773936028483895 5.9041751349725216 2 28.713429394961846 1.2 2 68.569417222205928 9.2852936058681692 2 98.6 6.6943213270545208 2 12.006494210485045 3.0136659143140467 2 23.259996571527836 4.4453196061089146 2 37.160107784934809 1 2 67.564549282003654 1.4 2 96.368083532782364 8.4944800175805533 2 29.309782165219737 5.183525940213614 2 38.624295278785418 1.4 2 64.045768694594344 2.3994488965611915 2 64.93996456033652 1 2 96.341885596451021 1.2 2 26.672131426320178 3.5277498644142509 2 12.987038414697544 4.6602223698210485 2 38.418037251946494 4.8818461466138716 2 99.0 4.4583721724305105 2 9.6994413224586147 4.1826015441887066 2 24.958927744876927 3.801353180884723 2 28.316273372956587 3.5737232771351928 2 40.096966351355015 6.1509819299158393 2 67.073664344514015 5.4978473098796687 2 97.655821270232522 3.2343768749989787 2 97.290203894992658 4.9558274517732741 2 12.17672113397086 1 2 25.051328014633313 5.9154159434178695 2 13.528505473217413 7.2375130266069796 2 65.464859934457095 2.5612448276650048 2 40.488394091234717 2.4304488924007974 2 11.809216904675466 6.1793918636646001 2 40.341375412364506 1 2 99.0 1 2 25.842382175363188 1 2 14.784820803316816 1.6862965162013794 2 27.216388079631599 1 2 41.86069928318085 5.3745455708681282 2 67.943696073577058 7.6403019052690677 2 23.632031864464608 2.4371090899312238 2 65.782779180633682 4.2208328634925874 2 13.883628567513977 3.2468472869066427 2 97.714727789080982 1.4704317526288733 2 13.743500037505459 1 2 41.303289174907448 3.7767137933802024 2 </DataArray>
<DataArray Name="forces" NumberOfComponents="3" format="ascii" type="Float32">0 0 0 0.045043498936804927 -0.44820346290083823 0.0 0.022822722331830386 -0.63778608937415071 0.0 -0.028934529928041304 0.30746153278481886 0.0 0.0029341839368392519 0.38226843537405941 0.0 0.052266612045975602 0.17788990092696882 0.0 -0.013084265481257767 0.13439893517709228 0.0 0.048006081334988099 0.15878525636777682 0.0 -0.016575075325365007 -0.68509252427364653 0.0 -0.030481024702772364 0.19514113828810942 0.0 0.23501386476520625 0.31267054744345824 0.0 -0.033393162563383413 0.094383317680930362 0.0 -0.031896159212511571 0.29011902168399012 0.0 -0.054464951996048117 -0.65324661556359953 0.0 -0.0090229782017003379 -0.96740932646308742 0.0 0.10612404170759081 0.18892326046226085 0.0 0.059207287738599679 0.19945291623471628 0.0 -0.0095883942843806858 -0.57905828385658453 0.0 -0.053178583610988789 0.16062675110601077 0.0 -0.059709903663368813 -0.62248023522375795 0.0 -0.025245141154497962 -0.51305559198366246 0.0 0.024576468953581843 0.15522863795302083 0.0 -0.081203438215658535 0.095825411338633482 0.0 -0.011742783382648003 0.2506776276109296 0.0 0.37467741976148361 0.14122991433933016 0.0 -0.08760294871342611 0.1807894689866803 0.0 0.011014519163916658 0.22507404835855188 0.0 0.038095669326408926 0.22190387184031113 0.0 -0.011065086101069339 0.20521107432135863 0.0 0.045437180639694486 0.22784867362882949 0.0 0.016677791494869587 0.040490385668995633 0.0 0.00097858915841902983 0.13053870118532065 0.0 0.0878894049649519 -0.61741465631614789 0.0 -0.0084529259257333511 0.15630099250146823 0.0 0.037684786629329864 0.15662664111129104 0.0 -0.046289109699850783 0.045184656050223801 0.0 -0.03171130122987656 0.065394857008057361 0.0 0.015581301912169554 0.23762755262871285 0.0 -0.005326596354991775 -0.70028831657304125 0.0 0.5822202378280863 -0.56532808044158878 0.0 0.0065924733811031505 -0.70634133900252682 0.0 0.062106322745384412 0.27426792909957243 0.0 -0.041269818585251763 -0.79789352824200732 0.0 -0.015858340261378667 0.13345614710673809 0.0 0.0062575164901590152 0.18629822378066022 0.0 0.060813570279158263 0.12229928138171106 0.0 0.059949282505230128 0.11658764276216869 0.0 -0.03537681281822519 0.17806787368421534 0.0 0.018134748700785935 -0.035431957588463209 0.0 0.13128044042108139 -0.91454887776644567 0.0 -0.043150229783580185 0.10256977745915724 0.0 </DataArray>
<DataArray Name="radii" format="ascii" type="Float32">0 1.2 1 1.4 1.4 1.2 1 1 1.2 1 1.4 1 1.4 1 1.4 1 1 1.4 1 1 1.2 1 1 1.2 1 1.2 1.2 1 1 1.2 1 1 1 1 1.2 1 1 1.2 1 1 1 1 1 1 1 1 1 1 1 1 1 </DataArray>
</PointData>
<CellData/>
</Piece>
</UnstructuredGrid>
</VTKFile>
