<?xml version="1.0" ?>
<VTKFile byte_order="LittleEndian" type="UnstructuredGrid" version="0.1">
<UnstructuredGrid>
<Piece NumberOfCells="0" NumberOfPoints="78">
<Points>
<DataArray NumberOfComponents="3" format="ascii" type="Float32">0 0 0 10.882326062250721 1.2 2 24.233165341941017 1 2 25.144044295759606 9.1682416250764316 2 38.004632436848112 7.1533548938308735 2 67.170511694245235 3.8383604814100543 2 95.148141678854302 6.7167929725415449 2 10.44303834091305 6.1616312254027159 2 28.910766461726187 1.2 2 68.226016667947576 9.9373418053768177 2 98.6 6.6774491291974822 2 12.605088816925099 2.8419341780670804 2 24.148592472310682 4.4858758373737562 2 38.290890645713716 1 2 66.965090418883477 1.4 2 98.386718306678603 8.7235692842845172 2 29.251152453184485 5.1794714829615902 2 39.283031928528025 1.4 2 64.821172839942065 1.9187430994112495 2 65.315141751241384 1 2 97.175036182713214 1.2 2 26.932393262564084 2.8221813544536194 2 40.829465580531817 2.6828904371351645 2 12.920603272789959 4.0930241378881069 2 38.760978288538581 5.56821180520281 2 99.0 4.6013850992607113 2 10.3269155448065 4.9134002166109703 2 15.594234886677489 2.5397596048330198 2 25.095997975553047 3.2643916832531721 2 15.365400163798075 1.4 2 28.029687101328921 3.4594541570424617 2 39.477905073320137 6.7749543104828582 2 65.493830772683566 5.5454330033876378 2 66.810444698274864 5.3597513392498435 2 99.0 3.3947824331401235 2 23.372642956757971 1.2 2 64.277658963255206 4.4520429047199483 2 42.200381517340865 5.9280680024120507 2 98.31272633808824 5.1076424449003355 2 11.958116500194794 1 2 14.339658258328567 2.6854150529466843 2 24.986728746533633 5.4355763533201875 2 13.100067139244016 7.2342566443733576 2 24.674282553404964 6.9037317312454194 2 65.494416031830454 2.8148336389121513 2 40.00951687417551 3.1599505984890466 2 12.171780121041582 5.7017595888566834 2 40.094135163710646 1 2 66.586271910635304 8.6819183770783592 2 99.0 1 2 25.679710669297069 1 2 14.398985079265133 1 2 27.370024981544738 1 2 40.559235665373265 5.6316621412553269 2 64.924830761217464 3.4816271279717079 2 68.224840517612904 8.1972682819380758 2 24.346898145233062 2.5476035809582838 2 42.044042987946909 1.5999999999999999 2 41.63333937440823 3.9921675732005886 2 14.829927298272839 8.29646063868217 2 23.218970365874522 7.4752035718421999 2 64.311666455390124 1.2 2 40.985569662023089 1.4 2 13.706848160868127 4.8806485207063419 2 67.109032950309867 6.9194444992560236 2 23.065052530305024 2.7576907901160963 2 39.290428029218063 8.559197297965115 2 66.032737358864082 4.1709982088620441 2 22.360151179356031 1.5999999999999999 2 40.919138661729299 7.1241903151101056 2 13.544031576360975 2.8055288204966597 2 63.455473294009572 1.5999999999999999 2 14.978495547589295 10.758398317205442 2 67.095523255928214 11.536723575438938 2 98.401176729843954 1 2 13.512207252604872 1 2 40.527820994487712 4.4421411356987317 2 63.6180657410032 3.0976399937943673 2 </DataArray>
</Points>
<Cells>
<DataArray Name="connectivity" format="ascii" type="Int32">0</DataArray>
<DataArray Name="offsets" format="ascii" type="Int32">0</DataArray>
<DataArray Name="types" format="ascii" type="UInt8">1</DataArray>
</Cells>
<PointData>
<DataArray Name="Points" NumberOfComponents="3" format="ascii" type="Float32">0 0 0 10.882326062250721 1.2 2 24.233165341941017 1 2 25.144044295759606 9.1682416250764316 2 38.004632436848112 7.1533548938308735 2 67.170511694245235 3.8383604814100543 2 95.148141678854302 6.7167929725415449 2 10.44303834091305 6.1616312254027159 2 28.910766461726187 1.2 2 68.226016667947576 9.9373418053768177 2 98.6 6.6774491291974822 2 12.605088816925099 2.8419341780670804 2 24.148592472310682 4.4858758373737562 2 38.290890645713716 1 2 66.965090418883477 1.4 2 98.386718306678603 8.7235692842845172 2 29.251152453184485 5.1794714829615902 2 39.283031928528025 1.4 2 64.821172839942065 1.9187430994112495 2 65.315141751241384 1 2 97.175036182713214 1.2 2 26.932393262564084 2.8221813544536194 2 40.829465580531817 2.6828904371351645 2 12.920603272789959 4.0930241378881069 2 38.760978288538581 5.56821180520281 2 99.0 4.6013850992607113 2 10.3269155448065 4.9134002166109703 2 15.594234886677489 2.5397596048330198 2 25.095997975553047 3.2643916832531721 2 15.365400163798075 1.4 2 28.029687101328921 3.4594541570424617 2 39.477905073320137 6.7749543104828582 2 65.493830772683566 5.5454330033876378 2 66.810444698274864 5.3597513392498435 2 99.0 3.3947824331401235 2 23.372642956757971 1.2 2 64.277658963255206 4.4520429047199483 2 42.200381517340865 5.9280680024120507 2 98.31272633808824 5.1076424449003355 2 11.958116500194794 1 2 14.339658258328567 2.6854150529466843 2 24.986728746533633 5.4355763533201875 2 13.100067139244016 7.2342566443733576 2 24.674282553404964 6.9037317312454194 2 65.494416031830454 2.8148336389121513 2 40.00951687417551 3.1599505984890466 2 12.171780121041582 5.7017595888566834 2 40.094135163710646 1 2 66.586271910635304 8.6819183770783592 2 99.0 1 2 25.679710669297069 1 2 14.398985079265133 1 2 27.370024981544738 1 2 40.559235665373265 5.6316621412553269 2 64.924830761217464 3.4816271279717079 2 68.224840517612904 8.1972682819380758 2 24.346898145233062 2.5476035809582838 2 42.044042987946909 1.5999999999999999 2 41.63333937440823 3.9921675732005886 2 14.829927298272839 8.29646063868217 2 23.218970365874522 7.4752035718421999 2 64.311666455390124 1.2 2 40.985569662023089 1.4 2 13.706848160868127 4.8806485207063419 2 67.109032950309867 6.9194444992560236 2 23.065052530305024 2.7576907901160963 2 39.290428029218063 8.559197297965115 2 66.032737358864082 4.1709982088620441 2 22.360151179356031 1.5999999999999999 2 40.919138661729299 7.1241903151101056 2 13.544031576360975 2.8055288204966597 2 63.455473294009572 1.5999999999999999 2 14.978495547589295 10.758398317205442 2 67.095523255928214 11.536723575438938 2 98.401176729843954 1 2 13.512207252604872 1 2 40.527820994487712 4.4421411356987317 2 63.6180657410032 3.0976399937943673 2 </DataArray>
<DataArray Name="forces" NumberOfComponents="3" format="ascii" type="Float32">0 0 0 -0.088801671645769353 -2.8330370753932455 0.0 -0.017097588419206611 -2.092993228111331 0.0 0.018348763349671504 0.81917954928229586 0.0 -0.051426133050848644 0.807738762115918 0.0 -0.028357766997972433 0.58683916014379234 0.0 0.22022610504560725 0.31432834194838288 0.0 0.015494231616105303 0.26816351718912879 0.0 0.026345862142380994 -2.5950783882562485 0.0 -0.039904427373902096 0.2345243615025871 0.0 1.3979432621483219 0.91305090360188412 0.0 0.071362991011463262 0.53122101762473062 0.0 0.086198686726441043 0.88182993983678104 0.0 0.021262731356290698 -2.7602811437743506 0.0 -0.085488397742853384 -3.2211258288910574 0.0 0.30554997131017403 0.31126603709234418 0.0 -0.028214316566257613 0.23631783527444217 0.0 0.048308482234148298 -2.1857537361778929 0.0 0.061015470251805204 0.40061386128103804 0.0 0.010634492050507982 -2.8317529413704898 0.0 -0.016400157548300154 -2.4398839062641215 0.0 0.044603496160928291 0.14725505876372136 0.0 -0.17488924695464395 0.72889469287369324 0.0 -0.06915599444524656 0.37418185227965078 0.0 0.094886351232697716 0.5932315329304475 0.0 1.7335603785774609 0.23810221800520154 0.0 0.20488006428125782 0.46789812626320371 0.0 -0.081973528323451339 0.97092336542432145 0.0 -0.013687687550185124 0.47130687672510224 0.0 0.045741872650923832 -2.8002672824938011 0.0 -0.088849046728024905 0.14223529359144885 0.0 -0.05529960655244949 0.34224086671497445 0.0 -0.015021104546924582 1.2619029803851252 0.0 -0.014743686193879585 0.50879900129258093 0.0 1.7837250879398767 0.23676816098380166 0.0 -0.017765360815573117 -2.2167248332652467 0.0 0.057709865753992617 1.1314528425689259 0.0 -0.10307662492988418 1.0836216726856895 0.0 0.25461790475488866 0.47351184163504051 0.0 0.074050010557626056 -2.3094834762462471 0.0 -0.0054042706006370012 0.54143214925098992 0.0 -0.024456791176456466 0.28773449213597291 0.0 0.03182583584475121 0.44159816554306419 0.0 0.15239224412689406 0.6230379289460799 0.0 0.16014278215199984 0.41114345403437652 0.0 -0.13839386001527243 0.53043820343122772 0.0 0.027056417636825425 0.45685557788492698 0.0 0.042622599076420964 -2.3563073355537676 0.0 0.0088187440945262617 1.0680215488307863 0.0 2.5334818795598211 -1.3404075594957279 0.0 -0.034220746676817626 -2.2297558093055549 0.0 -0.012542050020177165 -1.9661028152741213 0.0 -0.046077393164457137 -2.4413942367578869 0.0 -0.18205496804717999 0.25871771588614234 0.0 0.055708156914402451 0.54540759273591544 0.0 0.094394844903139971 0.30725659598439836 0.0 0.019991620159713702 0.25051159606738538 0.0 -0.078943335744447021 -3.7494592694595195 0.0 -0.17774878297444774 0.93377943457061519 0.0 0.075252568770569073 0.61463262255962114 0.0 0.054799381817496107 0.97605934537867878 0.0 0.054811818875033058 -3.0077100953137736 0.0 -0.07446848745827972 -2.8800002575554373 0.0 0.094439465575061471 0.78923712834764892 0.0 0.25767512405135573 0.49718116108183669 0.0 0.045559660322430862 0.75104251829861346 0.0 -0.079835176971882249 0.42594159378435204 0.0 0.072670393743238693 0.30610854000376286 0.0 -0.021234944974899306 -2.1982180973065328 0.0 0.037542683999008487 1.0717923195193384 0.0 0.0035651574386072332 0.24467792277002484 0.0 0.029284955720243838 -2.4382993852161947 0.0 0.01408512368156134 1.0134118166044339 0.0 0.020556259531827104 0.74250670398981722 0.0 0.13508910032910745 -2.2249549838870228 0.0 0.08401571501035672 -1.7860007207094772 0.0 -0.20973328763175797 0.48579076549099853 0.0 0.070417715423196359 1.0756282401378838 0.0 </DataArray>
<DataArray Name="radii" format="ascii" type="Float32">0 1.2 1 1.4 1.4 1.2 1 1 1.2 1 1.4 1 1.4 1 1.4 1 1 1.4 1 1 1.2 1 1.2 1 1.2 1 1.2 1.5999999999999999 1.2 1.4 1 1 1.5999999999999999 1.2 1 1.2 1.5999999999999999 1.5999999999999999 1 1 1.2 1 1.2 1.2 1 1 1.2 1 1.5999999999999999 1 1 1 1 1 1.2 1 1 1.5999999999999999 1.4 1.4 1.5999999999999999 1.2 1.4 1.4 1.2 1.4 1.2 1 1.5999999999999999 1.5999999999999999 1 1.5999999999999999 1.5999999999999999 1.4 1 1 1 1.5999999999999999 </DataArray>
</PointData>
<CellData/>
</Piece>
</UnstructuredGrid>
</VTKFile>
