<?xml version="1.0" ?>
<VTKFile byte_order="LittleEndian" type="UnstructuredGrid" version="0.1">
<UnstructuredGrid>
<Piece NumberOfCells="0" NumberOfPoints="169">
<Points>
<DataArray NumberOfComponents="3" format="ascii" type="Float32">0 0 0 11.674198015221918 1.2 2 23.813403143742924 1 2 24.976042711977911 8.3535806873068754 2 37.943850010792708 7.1043598647440138 2 42.331671697007494 1 2 62.149643434252809 3.7884052278330373 2 65.780410554716184 3.521055111331862 2 95.633364819312646 7.046930504755065 2 11.164306412031653 5.5765551095189094 2 16.169178022292371 6.4123485960225102 2 28.44048239311341 1.2 2 42.554808030127568 2.0896371884219049 2 42.047291395859162 7.0673044228680251 2 63.818748580356718 7.5796405479538427 2 67.749544955252588 9.7022880116798476 2 98.6 6.8105342694891027 2 13.204788571055706 2.7708298713849553 2 15.402760225101282 3.262247189597316 2 23.843306548723447 3.6857748504294015 2 39.016553570792851 1 2 44.281797670807329 2.3316188550513135 2 66.076690045378697 1.4 2 99.0 8.684355694653684 2 15.040998697072078 5.1944008449708168 2 23.82879232075031 9.6255911893989126 2 28.281220018800219 4.7252168082445731 2 40.278600559651906 1.4 2 63.700603894975181 2.7593546389721655 2 64.657594476667612 1 2 96.990987116870656 1.2 2 20.945480167199651 1.6048618455691122 2 26.498549450822473 3.2201077378553942 2 40.724623655481054 2.5196836356125369 2 62.108062258093483 1 2 13.533184877736796 3.7284425966530663 2 38.892036840910485 5.2830310218490677 2 43.033638847367911 2.5331195566974274 2 65.408184858993195 6.9183966760115929 2 99.0 4.7417208225140284 2 10.919872105426567 4.5957994520315681 2 15.963619840841549 2.4467210144197753 2 24.491986971406543 2.8515668362047588 2 15.839200491644092 1.4 2 22.699420117402447 2.500291339457628 2 27.534427367722706 3.1704769199118732 2 39.097634723887694 6.666676004939732 2 64.920197587931312 5.4579135620600994 2 66.708419910521457 5.6642933076748028 2 99.0 2.9631066135332587 2 23.103113466492868 1.2 2 43.314201169284274 1 2 63.99831413571269 4.0669202548235006 2 19.495392442316241 3.2391591970402263 2 41.753067316066655 6.1761825220015778 2 40.901245771673842 10.094099830475061 2 99.0 5.8592348074902789 2 12.454933904376992 1 2 15.049882092838899 2.4534656191061823 2 24.007750852742614 5.4808443561684506 2 13.67267352564761 7.1980709502672884 2 24.47145046460092 6.9566368182532381 2 62.142222202971901 2.1361426592240012 2 65.01458655625386 3.4152311364620704 2 20.791382758538244 2.6560311908888892 2 40.058892565114284 3.0717998284168671 2 61.299060918133868 1.4 2 12.678542292222799 5.3481440754676575 2 17.262920571617343 8.4227742583267489 2 40.614431967591749 1 2 44.293066992976613 4.99027235680924 2 66.429085170737878 9.2264159199497637 2 99.0 1 2 17.744150956484159 1.5999999999999999 2 25.075738868756698 1 2 15.30782786481714 1 2 21.490844514362767 5.5348838535976315 2 27.092468797373879 1 2 40.832487562563372 5.7850291482631562 2 64.413524581091622 3.1436505545330529 2 67.669639799308499 8.6233285433825682 2 23.52617143226999 2.6057197242473409 2 41.739495489644881 1 2 61.338690900433441 4.0888715744306845 2 41.494237623070227 3.2236913191866958 2 64.013594677176457 5.6765440296595937 2 15.050978083894833 7.0137717475751629 2 23.177267084446594 6.5596335824134409 2 63.630731441240378 1.2 2 21.057658573379843 1 2 41.058235044928637 1.4 2 62.587708488631698 1 2 13.592374965952338 4.5241073639094163 2 42.776006860055773 3.9640437182905637 2 66.9370624890568 7.2921515922524653 2 16.54237219102081 2.950086094701466 2 61.678106985990858 5.3233281583644239 2 16.321039001931876 1 2 22.57749012429548 1.4 2 39.393453085998566 7.9889394504637803 2 65.487326660553393 4.5804257722051105 2 21.884385290371178 1 2 44.52859468851976 1.4 2 63.262468077294159 4.0829433089433316 2 20.704774512088637 3.520769878552882 2 42.130887466257818 4.324522590673987 2 40.753272988228879 7.3544895569330917 2 65.354430331704776 10.363393834892475 2 14.246753674323577 2.8884305102756382 2 43.475275536544402 1.4 2 22.915916368314658 5.4618031498451423 2 63.102068491727245 1 2 60.240011191198363 1.5999999999999999 2 14.765558312090938 11.014251956266424 2 42.964039146569405 6.2155043808020682 2 62.73075584022196 6.1671215444554708 2 67.296343615685146 10.937319227663409 2 99.0 1 2 19.404906251558618 1.2 2 61.624971537645024 2.6960075310548586 2 14.019533512496848 1 2 20.709688154488113 7.8096292634270963 2 40.793695126491208 3.9604408226920427 2 63.37141817937507 3.2687713076392515 2 42.780953979517321 1 2 62.71269675982294 3.4940658004764633 2 17.571766102261591 6.062127932436649 2 41.585908052590781 2.4331231109183218 2 41.835934409854488 8.1799126697103013 2 63.918548508690677 6.7479024241154688 2 14.445934720904706 3.7425558776942696 2 13.874011169096677 5.805245973521024 2 22.159574282791048 10.169945134242379 2 21.757193615218604 2.5874054649932452 2 61.715371739379421 1.2 2 21.500901035290106 8.849969170444135 2 42.332344359378936 3.0780103943354651 2 65.119586981046382 8.2826862309634564 2 22.271379913634306 4.5610719814579976 2 44.057058957714432 1.2 2 40.591310234558314 8.6760300280465721 2 62.265777191327061 2.9229656255204923 2 19.782057227183472 2.2427365257746228 2 60.708534481597439 1.2 2 17.581240705607453 10.207830078309387 2 18.915743779952454 1.5999999999999999 2 60.906116665310755 1.7742180143896198 2 59.912869906949872 2.9177950227684297 2 64.835993234212538 6.3787782479294464 2 15.325738250194041 4.206453379333376 2 20.457556415153654 1 2 62.977898508578342 1.6168287248403894 2 20.020316220156246 6.0025158032376469 2 43.697175665044902 3.964111904498945 2 17.223061103664758 3.5151845378855193 2 62.397767868873522 4.6189812415490588 2 17.200172240907477 1.2 2 63.667372945791179 4.8460423425954513 2 21.931548617575078 3.4422742181496355 2 42.120762970383566 5.3303686421548813 2 64.609818362994247 9.2367648599855983 2 43.563244210559475 3.0597599087807175 2 22.967450662082786 3.7629950483188095 2 16.833797842534491 1.4 2 43.127078282933546 5.1943750403286604 2 63.043847776497934 5.3755698847570379 2 20.014292912173971 1 2 60.928144562314259 3.2518498994289007 2 21.562556686408847 6.954460697900716 2 </DataArray>
</Points>
<Cells>
<DataArray Name="connectivity" format="ascii" type="Int32">0</DataArray>
<DataArray Name="offsets" format="ascii" type="Int32">0</DataArray>
<DataArray Name="types" format="ascii" type="UInt8">1</DataArray>
</Cells>
<PointData>
<DataArray Name="Points" NumberOfComponents="3" format="ascii" type="Float32">0 0 0 11.674198015221918 1.2 2 23.813403143742924 1 2 24.976042711977911 8.3535806873068754 2 37.943850010792708 7.1043598647440138 2 42.331671697007494 1 2 62.149643434252809 3.7884052278330373 2 65.780410554716184 3.521055111331862 2 95.633364819312646 7.046930504755065 2 11.164306412031653 5.5765551095189094 2 16.169178022292371 6.4123485960225102 2 28.44048239311341 1.2 2 42.554808030127568 2.0896371884219049 2 42.047291395859162 7.0673044228680251 2 63.818748580356718 7.5796405479538427 2 67.749544955252588 9.7022880116798476 2 98.6 6.8105342694891027 2 13.204788571055706 2.7708298713849553 2 15.402760225101282 3.262247189597316 2 23.843306548723447 3.6857748504294015 2 39.016553570792851 1 2 44.281797670807329 2.3316188550513135 2 66.076690045378697 1.4 2 99.0 8.684355694653684 2 15.040998697072078 5.1944008449708168 2 23.82879232075031 9.6255911893989126 2 28.281220018800219 4.7252168082445731 2 40.278600559651906 1.4 2 63.700603894975181 2.7593546389721655 2 64.657594476667612 1 2 96.990987116870656 1.2 2 20.945480167199651 1.6048618455691122 2 26.498549450822473 3.2201077378553942 2 40.724623655481054 2.5196836356125369 2 62.108062258093483 1 2 13.533184877736796 3.7284425966530663 2 38.892036840910485 5.2830310218490677 2 43.033638847367911 2.5331195566974274 2 65.408184858993195 6.9183966760115929 2 99.0 4.7417208225140284 2 10.919872105426567 4.5957994520315681 2 15.963619840841549 2.4467210144197753 2 24.491986971406543 2.8515668362047588 2 15.839200491644092 1.4 2 22.699420117402447 2.500291339457628 2 27.534427367722706 3.1704769199118732 2 39.097634723887694 6.666676004939732 2 64.920197587931312 5.4579135620600994 2 66.708419910521457 5.6642933076748028 2 99.0 2.9631066135332587 2 23.103113466492868 1.2 2 43.314201169284274 1 2 63.99831413571269 4.0669202548235006 2 19.495392442316241 3.2391591970402263 2 41.753067316066655 6.1761825220015778 2 40.901245771673842 10.094099830475061 2 99.0 5.8592348074902789 2 12.454933904376992 1 2 15.049882092838899 2.4534656191061823 2 24.007750852742614 5.4808443561684506 2 13.67267352564761 7.1980709502672884 2 24.47145046460092 6.9566368182532381 2 62.142222202971901 2.1361426592240012 2 65.01458655625386 3.4152311364620704 2 20.791382758538244 2.6560311908888892 2 40.058892565114284 3.0717998284168671 2 61.299060918133868 1.4 2 12.678542292222799 5.3481440754676575 2 17.262920571617343 8.4227742583267489 2 40.614431967591749 1 2 44.293066992976613 4.99027235680924 2 66.429085170737878 9.2264159199497637 2 99.0 1 2 17.744150956484159 1.5999999999999999 2 25.075738868756698 1 2 15.30782786481714 1 2 21.490844514362767 5.5348838535976315 2 27.092468797373879 1 2 40.832487562563372 5.7850291482631562 2 64.413524581091622 3.1436505545330529 2 67.669639799308499 8.6233285433825682 2 23.52617143226999 2.6057197242473409 2 41.739495489644881 1 2 61.338690900433441 4.0888715744306845 2 41.494237623070227 3.2236913191866958 2 64.013594677176457 5.6765440296595937 2 15.050978083894833 7.0137717475751629 2 23.177267084446594 6.5596335824134409 2 63.630731441240378 1.2 2 21.057658573379843 1 2 41.058235044928637 1.4 2 62.587708488631698 1 2 13.592374965952338 4.5241073639094163 2 42.776006860055773 3.9640437182905637 2 66.9370624890568 7.2921515922524653 2 16.54237219102081 2.950086094701466 2 61.678106985990858 5.3233281583644239 2 16.321039001931876 1 2 22.57749012429548 1.4 2 39.393453085998566 7.9889394504637803 2 65.487326660553393 4.5804257722051105 2 21.884385290371178 1 2 44.52859468851976 1.4 2 63.262468077294159 4.0829433089433316 2 20.704774512088637 3.520769878552882 2 42.130887466257818 4.324522590673987 2 40.753272988228879 7.3544895569330917 2 65.354430331704776 10.363393834892475 2 14.246753674323577 2.8884305102756382 2 43.475275536544402 1.4 2 22.915916368314658 5.4618031498451423 2 63.102068491727245 1 2 60.240011191198363 1.5999999999999999 2 14.765558312090938 11.014251956266424 2 42.964039146569405 6.2155043808020682 2 62.73075584022196 6.1671215444554708 2 67.296343615685146 10.937319227663409 2 99.0 1 2 19.404906251558618 1.2 2 61.624971537645024 2.6960075310548586 2 14.019533512496848 1 2 20.709688154488113 7.8096292634270963 2 40.793695126491208 3.9604408226920427 2 63.37141817937507 3.2687713076392515 2 42.780953979517321 1 2 62.71269675982294 3.4940658004764633 2 17.571766102261591 6.062127932436649 2 41.585908052590781 2.4331231109183218 2 41.835934409854488 8.1799126697103013 2 63.918548508690677 6.7479024241154688 2 14.445934720904706 3.7425558776942696 2 13.874011169096677 5.805245973521024 2 22.159574282791048 10.169945134242379 2 21.757193615218604 2.5874054649932452 2 61.715371739379421 1.2 2 21.500901035290106 8.849969170444135 2 42.332344359378936 3.0780103943354651 2 65.119586981046382 8.2826862309634564 2 22.271379913634306 4.5610719814579976 2 44.057058957714432 1.2 2 40.591310234558314 8.6760300280465721 2 62.265777191327061 2.9229656255204923 2 19.782057227183472 2.2427365257746228 2 60.708534481597439 1.2 2 17.581240705607453 10.207830078309387 2 18.915743779952454 1.5999999999999999 2 60.906116665310755 1.7742180143896198 2 59.912869906949872 2.9177950227684297 2 64.835993234212538 6.3787782479294464 2 15.325738250194041 4.206453379333376 2 20.457556415153654 1 2 62.977898508578342 1.6168287248403894 2 20.020316220156246 6.0025158032376469 2 43.697175665044902 3.964111904498945 2 17.223061103664758 3.5151845378855193 2 62.397767868873522 4.6189812415490588 2 17.200172240907477 1.2 2 63.667372945791179 4.8460423425954513 2 21.931548617575078 3.4422742181496355 2 42.120762970383566 5.3303686421548813 2 64.609818362994247 9.2367648599855983 2 43.563244210559475 3.0597599087807175 2 22.967450662082786 3.7629950483188095 2 16.833797842534491 1.4 2 43.127078282933546 5.1943750403286604 2 63.043847776497934 5.3755698847570379 2 20.014292912173971 1 2 60.928144562314259 3.2518498994289007 2 21.562556686408847 6.954460697900716 2 </DataArray>
<DataArray Name="forces" NumberOfComponents="3" format="ascii" type="Float32">0 0 0 0.60538302880699602 -6.245756035540313 0.0 -0.08816540784360069 -4.8215039456027471 0.0 -0.054192932151072903 1.3484059131310784 0.0 -0.00069450999704967487 1.4470337094764494 0.0 -0.39111128067116718 -4.117734851094748 0.0 0.47529537153241591 0.72846111441999273 0.0 -0.45514604220984123 1.3755168627440857 0.0 0.44367096180218668 0.60972373133395497 0.0 0.18154569362858203 0.3489444787014091 0.0 0.40605646336562817 1.5831517004484341 0.0 -0.10961658086255693 -6.2825263085525735 0.0 -0.33968287625121157 0.68413064436159121 0.0 -0.3825983384503957 1.0102099567849943 0.0 0.22952598861382523 1.8337204854858526 0.0 -0.071790525889682433 0.56822585459277464 0.0 2.5117565774747752 2.1220071619382277 0.0 0.32037491229691339 1.0755362238093158 0.0 0.26256394887949974 0.53557846519572938 0.0 -0.35300296666793551 2.2628856113333398 0.0 0.14204598107943261 -6.3585865151144079 0.0 -0.78394752390711864 2.0672699111101562 0.0 -0.12674861713790886 -6.5294726510026022 0.0 1.2004254960960026 0.69644792796808641 0.0 0.37876530065828118 2.661907865469443 0.0 0.42649713380935439 0.43239822680230539 0.0 -0.017006129855609897 0.55889051686592961 0.0 0.10920697075140362 -3.7387098947359174 0.0 -0.01610390464531819 1.0359158185794031 0.0 -0.17492269723652631 -6.6413315399586175 0.0 -0.10733207300087158 -7.5790672559190062 0.0 -0.16262518859064756 0.20069454690891836 0.0 -0.048286411780178395 0.86137922537511225 0.0 0.058262684810402643 1.2628133596899795 0.0 -0.071079935682466955 -5.4713307242880997 0.0 0.046171283780199815 0.82045318375397591 0.0 0.2378439916206565 1.2136486305298273 0.0 -0.44730832748197513 1.4819230745400507 0.0 0.046462171479865755 0.60361158200742426 0.0 3.6828082862011371 0.85296267142440696 0.0 0.34608735972634674 0.79566910398340152 0.0 0.34486602815035039 0.7396117466863108 0.0 -0.4441377935291132 1.6440871920364308 0.0 -0.038110701111483181 -2.7502913389172523 0.0 -0.31875573728019035 1.1523674044119154 0.0 -0.092987508807162833 0.67133454620293964 0.0 0.11385410404593821 1.0174850915007709 0.0 -0.32327072051044048 0.78632829907295232 0.0 -0.27633298691720176 1.6042036162643145 0.0 5.6862840227345499 0.81838253122769 0.0 -0.16959988630031009 -3.8730396163890184 0.0 -0.47000653297646322 -5.5132719597140243 0.0 -0.060729730543049004 0.69371505493289731 0.0 0.09494197880185129 2.799278632558909 0.0 -0.13029532192775978 0.70288245091188428 0.0 -0.38529278639294795 1.1064373969053474 0.0 2.6853445653138683 0.91329852913163478 0.0 0.61720680137425621 -5.7626873621063517 0.0 0.27604353131826909 1.4013355494333826 0.0 -0.29444203942999114 0.71705918740006935 0.0 0.3933170276987677 0.91898125067264202 0.0 0.12100105821472229 1.0145644081186387 0.0 0.2062791238062931 1.543186259802964 0.0 -0.25928055581589327 0.58762553299676323 0.0 -0.00059565080686377336 0.960685797510614 0.0 0.18226222160103545 0.98190505770345127 0.0 0.34596467169293987 -4.5582194826125004 0.0 0.27979135543515621 0.77420886051156168 0.0 0.29752143914172458 0.35434188811779527 0.0 0.0476651771912322 -5.6074117194591153 0.0 -0.42214170742073565 2.3648162067893326 0.0 -0.16705366178799272 0.39248509008534427 0.0 4.2737573531163919 -4.0728897101133423 0.0 -0.1321313065177879 -2.5545018946582942 0.0 -0.38442786013037167 -5.6818177290619438 0.0 0.017496109156267203 -4.7127519159321754 0.0 -0.16673172036534253 1.8881264523048791 0.0 -0.53361996785797272 -5.6497818244141937 0.0 0.1178921121862132 0.66670689048235987 0.0 -0.25971724714739497 1.0316274005069221 0.0 -0.24643709147409235 0.60884731515236368 0.0 -0.30952359711120109 0.99201382168364605 0.0 -0.068962314557165033 -5.1915526674589394 0.0 0.37997932823841318 1.6338809748272005 0.0 0.020584195445827302 2.2526321753773395 0.0 0.13577127436687997 0.70299245653206455 0.0 0.30104035092928183 1.1749899323032156 0.0 0.032940185305263769 0.27717734958246892 0.0 0.081218612507649945 -5.2219379842343798 0.0 0.53131034854964654 -3.9180706419422489 0.0 -0.17324740353261903 -3.3389080641748712 0.0 -0.12568234403976225 -5.1399420191138683 0.0 0.054570850881794482 2.1917424136521024 0.0 -0.3865772725961103 1.415291040281129 0.0 0.27623247719113908 1.4395251009219581 0.0 0.2038383363161391 1.0877304608714273 0.0 0.034285130025035582 2.734515068445369 0.0 -0.15790354268673923 -4.4421774526240876 0.0 -0.038049989593495814 -3.3496916237616312 0.0 0.14438694485197756 0.81842121583005056 0.0 -0.30893760555138949 1.1360922893755818 0.0 -0.1495240849602949 -4.5672784331251712 0.0 -0.36915521523859918 -5.609190664764709 0.0 0.21403524376965694 0.85217892340934853 0.0 -0.15781015763712281 1.6288695708125798 0.0 -0.32733532091007589 1.1195006312986564 0.0 -0.48450973541491194 0.48126684751608939 0.0 0.0025189440828657927 1.8714863808570144 0.0 0.27641300793656404 0.96886732459666369 0.0 -0.58294700279662293 -2.6592856973362329 0.0 -0.37452898808373469 1.0743548749733485 0.0 -0.11642938686072662 -5.6089099568133127 0.0 0.21507016207610807 -4.4718143040597322 0.0 0.06139369542286665 0.11291338128324493 0.0 -0.10700721285609274 1.7907006817380338 0.0 0.016283831999739817 2.8104906046807887 0.0 -0.12318712535285437 1.765681968595104 0.0 4.2737573531163919 -4.0728897101133423 0.0 0.10447638453256336 -4.6608256913335282 0.0 0.46179332143080809 1.6331053935362112 0.0 -0.015850841654498349 -5.4927269525937135 0.0 -0.17084538308605679 0.18584384254208774 0.0 -0.16916984826478831 0.35457073006023077 0.0 -0.045653932022274635 0.82436239368659636 0.0 -0.53149226601195199 -4.3301742758595969 0.0 0.3135994652330194 0.3973858023747785 0.0 0.27112545471445992 2.3218334984968125 0.0 0.13027155927912193 1.4531290577291145 0.0 -0.41828175083495744 1.623294600201233 0.0 0.11940244831620236 0.93302518556379122 0.0 0.14016528852000798 1.6030703933257002 0.0 0.40075250929132683 1.2630051603033929 0.0 -0.28689463930824927 1.8294698132066201 0.0 -0.28081992805586353 0.79057561120855846 0.0 0.25996769886785009 -5.2127188987935522 0.0 -0.027872592203440467 0.47941704573813099 0.0 -0.23325560323835859 1.0327931614333119 0.0 0.087685208113262469 0.57290403603162365 0.0 -0.15301080904145525 1.8431367237780691 0.0 -0.45248380628007334 -5.9424658344523502 0.0 -0.078517107303716555 0.45828068854239462 0.0 0.85928896013854639 0.6434994374977554 0.0 0.45187256936665759 1.2008653532894964 0.0 -0.021611093478578425 -7.3606798944502554 0.0 -0.095216911986544778 0.52157175959731106 0.0 0.16613712128267433 -2.7599487300089067 0.0 0.7583759693068497 0.61802360908382392 0.0 0.47686306446749599 2.5756831667317983 0.0 0.30475858854067694 0.64669624665822778 0.0 0.34890680719089617 3.0652112457826668 0.0 0.43335298041800985 -3.5953833752645719 0.0 -0.39615135957601616 -0.24970857288674897 0.0 0.13805704204843583 2.3180342937570231 0.0 -0.39974267559621091 1.6988999045111497 0.0 0.39843226662839742 2.8022454740514848 0.0 0.37103455585525358 1.2564275597589922 0.0 0.86971966354719155 -5.0114678197925535 0.0 0.50349033175384517 0.61211730278343768 0.0 -0.15733970669852182 2.1053297715028796 0.0 -0.42854154001153288 0.6179836206861512 0.0 0.084599148832007448 0.763425033929782 0.0 -0.38883801558853393 2.1175427351149461 0.0 -0.17563157932878964 2.3297933839667073 0.0 -0.49358858836459374 -2.1480287946724905 0.0 -0.54646169817466916 0.9392383141424524 0.0 0.43541363094999141 0.49515346496799251 0.0 -0.24495806712287871 -3.8962708329242735 0.0 0.44453109104388799 1.799180641363888 0.0 -0.28061545796424692 0.3649811134478757 0.0 </DataArray>
<DataArray Name="radii" format="ascii" type="Float32">0 1.2 1 1.4 1.4 1 1 1.2 1 1 1.4 1.2 1 1.2 1.4 1 1.4 1 1 1.4 1 1.5999999999999999 1.4 1 1.5999999999999999 1 1 1.4 1 1 1.2 1 1 1.2 1 1 1.2 1.2 1 1 1.2 1 1.2 1.4 1.2 1 1 1 1.2 1 1.2 1 1 1.5999999999999999 1 1.2 1 1 1.2 1 1.2 1.2 1 1 1.2 1 1.4 1.2 1 1 1.5999999999999999 1 1 1.5999999999999999 1 1 1.4 1 1 1.2 1 1 1 1.4 1.4 1 1.4 1 1.2 1 1.4 1 1.4 1.2 1.2 1.2 1.5999999999999999 1 1.4 1.2 1 1 1.4 1 1.4 1 1 1.4 1 1.4 1.2 1 1.5999999999999999 1 1.4 1.5999999999999999 1.4 1 1.2 1.2 1 1 1 1 1 1 1.5999999999999999 1.2 1.4 1.2 1.2 1.2 1.5999999999999999 1 1.2 1.2 1 1 1.4 1.2 1 1 1.4 1.2 1 1.5999999999999999 1.4 1.5999999999999999 1 1.5999999999999999 1 1 1.5999999999999999 1.4 1.5999999999999999 1.2 1.2 1 1.4 1 1 1.4 1.4 1.4 1.2 1 1 1.4 1 </DataArray>
</PointData>
<CellData/>
</Piece>
</UnstructuredGrid>
</VTKFile>
