<?xml version="1.0" ?>
<VTKFile byte_order="LittleEndian" type="UnstructuredGrid" version="0.1">
<UnstructuredGrid>
<Piece NumberOfCells="0" NumberOfPoints="41">
<Points>
<DataArray NumberOfComponents="3" format="ascii" type="Float32">8.3689308769807695 1.4 2 32.217157196848412 1.4 2 76.491025625667277 1.4 2 78.884926263475165 1.4 2 87.574753253883912 3.8106214375447918 2 1.4 1.4 2 34.568684080929216 1.4 2 69.420674117796381 1.4 2 83.786480295968389 1.4 2 86.364532631354152 6.2643121444197973 2 8.0549087545370437 6.5835342850353653 2 32.085932567746624 6.12561596946456 2 75.286810954435225 5.5725879689741644 2 77.958856788489442 6.4060405506084219 2 90.141199772287507 3.8118931361721673 2 5.9663590035202452 4.1162960244770135 2 33.687329213732717 3.8950951295936083 2 71.813150014269979 1.4 2 82.446575380796318 3.7950734671618771 2 86.280328244385629 1.4 2 6.0437583254504812 1.4 2 30.970106332021569 3.6261780929144494 2 74.193267798385548 1.4 2 79.88729767135149 3.94712005862546 2 90.293133736893836 6.518488020869448 2 3.7305667269387683 1.4 2 36.377700944005753 3.2920840569188612 2 70.638120306631038 3.8786069803218912 2 85.006652886477781 3.8454941613104303 2 83.589789850807534 6.2569168851342285 2 8.7545193816685067 3.9827332131336206 2 29.229400672895547 5.7063177091120938 2 72.051022713237387 6.2457987204869427 2 77.286319778782214 3.7788058417848482 2 91.31403980155639 1.4 2 93.866231956040792 1.4 2 2.8201261832503626 3.967454679137993 2 35.598721392237927 5.9026642453818106 2 73.271411208020439 3.7893833523381693 2 81.302705833347517 1.4 2 88.799129897389491 1.4 2 </DataArray>
</Points>
<Cells>
<DataArray Name="connectivity" format="ascii" type="Int32">0</DataArray>
<DataArray Name="offsets" format="ascii" type="Int32">0</DataArray>
<DataArray Name="types" format="ascii" type="UInt8">1</DataArray>
</Cells>
<PointData>
<DataArray Name="Points" NumberOfComponents="3" format="ascii" type="Float32">8.3689308769807695 1.4 2 32.217157196848412 1.4 2 76.491025625667277 1.4 2 78.884926263475165 1.4 2 87.574753253883912 3.8106214375447918 2 1.4 1.4 2 34.568684080929216 1.4 2 69.420674117796381 1.4 2 83.786480295968389 1.4 2 86.364532631354152 6.2643121444197973 2 8.0549087545370437 6.5835342850353653 2 32.085932567746624 6.12561596946456 2 75.286810954435225 5.5725879689741644 2 77.958856788489442 6.4060405506084219 2 90.141199772287507 3.8118931361721673 2 5.9663590035202452 4.1162960244770135 2 33.687329213732717 3.8950951295936083 2 71.813150014269979 1.4 2 82.446575380796318 3.7950734671618771 2 86.280328244385629 1.4 2 6.0437583254504812 1.4 2 30.970106332021569 3.6261780929144494 2 74.193267798385548 1.4 2 79.88729767135149 3.94712005862546 2 90.293133736893836 6.518488020869448 2 3.7305667269387683 1.4 2 36.377700944005753 3.2920840569188612 2 70.638120306631038 3.8786069803218912 2 85.006652886477781 3.8454941613104303 2 83.589789850807534 6.2569168851342285 2 8.7545193816685067 3.9827332131336206 2 29.229400672895547 5.7063177091120938 2 72.051022713237387 6.2457987204869427 2 77.286319778782214 3.7788058417848482 2 91.31403980155639 1.4 2 93.866231956040792 1.4 2 2.8201261832503626 3.967454679137993 2 35.598721392237927 5.9026642453818106 2 73.271411208020439 3.7893833523381693 2 81.302705833347517 1.4 2 88.799129897389491 1.4 2 </DataArray>
<DataArray Name="forces" NumberOfComponents="3" format="ascii" type="Float32">0.018882233759423016 -0.15331106977618758 0.0 -0.024239078793920274 -0.19357176041788038 0.0 0.0014523143184904802 -0.27897625012324018 0.0 -0.00096343905380363859 -0.056485816980256023 0.0 0.01373355706020734 0.082054839135350777 0.0 -0.47303952386128811 0.0 0.0 -0.027028659359436893 -0.20045082587412824 0.0 0.010494047831816358 -0.13902225358448048 0.0 0.0076303214598452129 -0.1106581991445913 0.0 0.010023454325988512 0.081202574126091359 0.0 -0.028482996842405316 0.1070394592191994 0.0 -0.0066836447161794793 0.10332443899873989 0.0 -0.003891812715278567 0.15135410854945866 0.0 0.024760096476668582 0.086133989560927396 0.0 0.016731147258861646 0.086194514450994852 0.0 -0.01107335413824226 0.084095255254000384 0.0 -0.0080947474530195691 0.097462954051031239 0.0 0.010657471243953952 -0.057050844628810632 0.0 -0.0035851577098308662 0.084201187387229162 0.0 0.015973098662324159 -0.094711418804624095 0.0 0.015470292496135518 -0.083637779808667143 0.0 -0.0083419312056728853 0.10214903505538596 0.0 0.0017170644692155318 -0.22457906565186656 0.0 -0.019567926349871173 0.084549010493968971 0.0 0.005246649804025014 0.0905340353530453 0.0 0.0086035059407268376 -0.072450554685416918 0.0 -0.021276781589044839 0.087924398659864719 0.0 0.017000184867611567 0.080315152735549553 0.0 0.0073666733420761511 0.08096130434581876 0.0 0.0096078330238376936 0.081032479651305264 0.0 -0.0092192254972205262 0.10226786228908026 0.0 -0.02138129120199856 0.095167304627099186 0.0 -0.0048479335038896301 0.089635163264756151 0.0 -0.038481076834892214 0.10365930490635482 0.0 0.024888884057102767 -0.24152620669601807 0.0 0.023717850868069407 0.01889168189112107 0.0 -0.025250670010469819 0.072450554685416918 0.0 -0.0023069686608477788 0.092432761533475405 0.0 0.023387944751655117 0.096178038977565397 0.0 0.0024230561558985092 -0.13117752016395792 0.0 0.022495210032860202 -0.1223313164648471 0.0 </DataArray>
<DataArray Name="radii" format="ascii" type="Float32">1.4 1.4 1.4 1.4 1.4 1.4 1.4 1.4 1.4 1.4 1.4 1.4 1.4 1.4 1.4 1.4 1.4 1.4 1.4 1.4 1.4 1.4 1.4 1.4 1.4 1.4 1.4 1.4 1.4 1.4 1.4 1.4 1.4 1.4 1.4 1.4 1.4 1.4 1.4 1.4 1.4 </DataArray>
</PointData>
<CellData/>
</Piece>
</UnstructuredGrid>
</VTKFile>
