<?xml version="1.0" ?>
<VTKFile byte_order="LittleEndian" type="UnstructuredGrid" version="0.1">
<UnstructuredGrid>
<Piece NumberOfCells="0" NumberOfPoints="134">
<Points>
<DataArray NumberOfComponents="3" format="ascii" type="Float32">0 0 0 11.165155795832591 1.2 2 24.101824937653429 1 2 25.052146322155171 8.9454613013022364 2 37.901304180446573 7.6306362012880156 2 43.182790684258038 1 2 61.471880723827596 4.1717967931616728 2 66.545371078457251 3.6193992929252476 2 95.228373738047168 7.0332390176196729 2 10.66898887785632 5.9192814321873266 2 28.701488277833899 1.2 2 42.571125127551277 2.1236838773542051 2 42.534557707817349 7.5532577524791673 2 68.247450911118534 9.8383680309442862 2 98.6 6.8111090295981205 2 12.801730970415104 2.6302759910588622 2 15.487660267403806 3.6102923080749294 2 24.229501055873342 4.04844673879618 2 38.738870825536843 1 2 66.586936267707699 1.4 2 98.637098342679039 8.8078248315630674 2 23.39888331704277 9.9841612844568903 2 28.608519777351223 5.0912853190983975 2 39.55054778143586 1.4 2 64.154612431222148 2.2645938442660296 2 65.140456267104895 1 2 96.906997518512966 1.2 2 21.177885143002587 1.985884580823666 2 26.848693116451191 3.2127680841833062 2 40.524299773692384 2.6816777372493417 2 61.836162868970405 1 2 12.957480516381569 3.7754390483512079 2 38.482234863949863 5.5186095440305936 2 43.67725247241728 2.7664302741519253 2 65.291430075262255 7.1599418295726966 2 99.0 4.4809255316411596 2 10.384474904613171 4.6890281283213699 2 16.275295358092347 2.5213457287691052 2 25.080344748637678 3.3309623077432251 2 15.560054300425495 1.4 2 22.765107793328504 2.9985467548971672 2 27.952688779243882 3.2584892079688932 2 39.105830385755119 6.5935018623283543 2 65.48858614271424 5.316705023463955 2 67.102033895588477 5.5404108852859961 2 99.0 2.8848874930320365 2 23.235455137337542 1.2 2 43.950320483417386 1 2 64.076052612740085 4.3047772289862234 2 41.990725420560302 6.427189719923291 2 41.273837943544734 10.415093401492991 2 99.0 5.5366178892694586 2 11.911927117135793 1 2 14.617164912618996 2.9107899292150528 2 24.472219527895721 5.569305687842097 2 13.175359916088798 7.6873421462424867 2 24.510138259680804 7.1272082284648031 2 61.870455821383644 2.1641993241901565 2 65.388442208282285 3.4765719486944251 2 20.56426672452136 3.175677472733109 2 39.694615958117694 3.2727205638200676 2 12.293440495417144 5.8648476125041258 2 16.982337729166574 8.5847496504281349 2 40.277414609478939 1 2 66.656737307595378 9.4105784645439634 2 99.0 1 2 25.787629398218428 1 2 14.702591846989884 1 2 27.619444314578281 1 2 40.585344177812232 5.829818210055481 2 64.418760093082724 3.4023793074884514 2 68.099893205321834 8.6196565604659874 2 24.018370461022993 2.6025913369500415 2 41.72856977393473 1 2 41.651752396798898 3.7239469415017039 2 63.796537733731533 5.9553913797272804 2 14.898597472940379 8.0521289669338358 2 22.985343167280984 7.0782805867726202 2 63.745845972817214 1.2 2 20.662148637396562 1 2 40.981269353264871 1.4 2 62.469115175080326 1 2 13.417800169179227 4.6904303229346951 2 43.545950076738762 4.2162691543864996 2 67.134018106798152 7.280559829772856 2 16.534256579305712 3.3915503747569655 2 16.247502610441504 1 2 22.941158326493575 1.8200121610381408 2 39.263574656803193 8.6062529871595181 2 65.825912559388314 4.3845392875706457 2 22.255431453336254 1 2 63.043217638423826 4.141461998920307 2 42.591422398496228 4.2067495383752362 2 41.137029203752611 7.5767798740645187 2 13.707242006398488 2.7903414725060771 2 23.213797684538207 5.9086929415466827 2 63.143460494812331 1 2 14.732415977217233 11.297077596749917 2 67.340862606373975 11.322963414805839 2 98.616859829904016 1 2 19.176453066100319 1.2 2 60.546639172112528 2.8526843347503865 2 13.774938640379489 1 2 20.716987150515124 8.3379296307407902 2 40.826401206741139 4.3041432912562758 2 63.44487605358993 3.1417357678017215 2 43.866207833765159 1.7925665689891295 2 62.333686731189253 3.7437108049534258 2 41.462259267999784 2.6334444988717358 2 63.515523585041485 7.1420895399702582 2 14.511199214608867 4.2449729397145477 2 13.56603994692715 6.1152704540825091 2 21.697956220372681 2.7427469491803196 2 61.249847968237248 1.2 2 21.352197003929284 9.8038146028824844 2 42.741096096499462 2.8661593374452825 2 65.118674331454145 8.6008347396267109 2 44.744173234004144 1.2 2 40.768495233596575 8.8952554745982049 2 61.459625896908875 2.9917457590494823 2 60.361937695757732 1.7376838657805429 2 17.688478906915499 10.191629808618458 2 64.710801159187 6.5721210744107754 2 20.081363444643653 2.1323956120975223 2 63.057690951421819 2.1642278032308195 2 61.898260906129082 5.0067674380870306 2 16.941315048491756 1.2 2 63.199302154547681 5.0960928041503548 2 42.802626303214652 5.5258428451182633 2 64.165451413072219 9.496358108442454 2 43.82212139683287 5.6691401369425352 2 62.481561738309168 5.7826968134748133 2 19.856295190686716 1 2 21.50851995287843 7.2146429153709768 2 </DataArray>
</Points>
<Cells>
<DataArray Name="connectivity" format="ascii" type="Int32">0</DataArray>
<DataArray Name="offsets" format="ascii" type="Int32">0</DataArray>
<DataArray Name="types" format="ascii" type="UInt8">1</DataArray>
</Cells>
<PointData>
<DataArray Name="Points" NumberOfComponents="3" format="ascii" type="Float32">0 0 0 11.165155795832591 1.2 2 24.101824937653429 1 2 25.052146322155171 8.9454613013022364 2 37.901304180446573 7.6306362012880156 2 43.182790684258038 1 2 61.471880723827596 4.1717967931616728 2 66.545371078457251 3.6193992929252476 2 95.228373738047168 7.0332390176196729 2 10.66898887785632 5.9192814321873266 2 28.701488277833899 1.2 2 42.571125127551277 2.1236838773542051 2 42.534557707817349 7.5532577524791673 2 68.247450911118534 9.8383680309442862 2 98.6 6.8111090295981205 2 12.801730970415104 2.6302759910588622 2 15.487660267403806 3.6102923080749294 2 24.229501055873342 4.04844673879618 2 38.738870825536843 1 2 66.586936267707699 1.4 2 98.637098342679039 8.8078248315630674 2 23.39888331704277 9.9841612844568903 2 28.608519777351223 5.0912853190983975 2 39.55054778143586 1.4 2 64.154612431222148 2.2645938442660296 2 65.140456267104895 1 2 96.906997518512966 1.2 2 21.177885143002587 1.985884580823666 2 26.848693116451191 3.2127680841833062 2 40.524299773692384 2.6816777372493417 2 61.836162868970405 1 2 12.957480516381569 3.7754390483512079 2 38.482234863949863 5.5186095440305936 2 43.67725247241728 2.7664302741519253 2 65.291430075262255 7.1599418295726966 2 99.0 4.4809255316411596 2 10.384474904613171 4.6890281283213699 2 16.275295358092347 2.5213457287691052 2 25.080344748637678 3.3309623077432251 2 15.560054300425495 1.4 2 22.765107793328504 2.9985467548971672 2 27.952688779243882 3.2584892079688932 2 39.105830385755119 6.5935018623283543 2 65.48858614271424 5.316705023463955 2 67.102033895588477 5.5404108852859961 2 99.0 2.8848874930320365 2 23.235455137337542 1.2 2 43.950320483417386 1 2 64.076052612740085 4.3047772289862234 2 41.990725420560302 6.427189719923291 2 41.273837943544734 10.415093401492991 2 99.0 5.5366178892694586 2 11.911927117135793 1 2 14.617164912618996 2.9107899292150528 2 24.472219527895721 5.569305687842097 2 13.175359916088798 7.6873421462424867 2 24.510138259680804 7.1272082284648031 2 61.870455821383644 2.1641993241901565 2 65.388442208282285 3.4765719486944251 2 20.56426672452136 3.175677472733109 2 39.694615958117694 3.2727205638200676 2 12.293440495417144 5.8648476125041258 2 16.982337729166574 8.5847496504281349 2 40.277414609478939 1 2 66.656737307595378 9.4105784645439634 2 99.0 1 2 25.787629398218428 1 2 14.702591846989884 1 2 27.619444314578281 1 2 40.585344177812232 5.829818210055481 2 64.418760093082724 3.4023793074884514 2 68.099893205321834 8.6196565604659874 2 24.018370461022993 2.6025913369500415 2 41.72856977393473 1 2 41.651752396798898 3.7239469415017039 2 63.796537733731533 5.9553913797272804 2 14.898597472940379 8.0521289669338358 2 22.985343167280984 7.0782805867726202 2 63.745845972817214 1.2 2 20.662148637396562 1 2 40.981269353264871 1.4 2 62.469115175080326 1 2 13.417800169179227 4.6904303229346951 2 43.545950076738762 4.2162691543864996 2 67.134018106798152 7.280559829772856 2 16.534256579305712 3.3915503747569655 2 16.247502610441504 1 2 22.941158326493575 1.8200121610381408 2 39.263574656803193 8.6062529871595181 2 65.825912559388314 4.3845392875706457 2 22.255431453336254 1 2 63.043217638423826 4.141461998920307 2 42.591422398496228 4.2067495383752362 2 41.137029203752611 7.5767798740645187 2 13.707242006398488 2.7903414725060771 2 23.213797684538207 5.9086929415466827 2 63.143460494812331 1 2 14.732415977217233 11.297077596749917 2 67.340862606373975 11.322963414805839 2 98.616859829904016 1 2 19.176453066100319 1.2 2 60.546639172112528 2.8526843347503865 2 13.774938640379489 1 2 20.716987150515124 8.3379296307407902 2 40.826401206741139 4.3041432912562758 2 63.44487605358993 3.1417357678017215 2 43.866207833765159 1.7925665689891295 2 62.333686731189253 3.7437108049534258 2 41.462259267999784 2.6334444988717358 2 63.515523585041485 7.1420895399702582 2 14.511199214608867 4.2449729397145477 2 13.56603994692715 6.1152704540825091 2 21.697956220372681 2.7427469491803196 2 61.249847968237248 1.2 2 21.352197003929284 9.8038146028824844 2 42.741096096499462 2.8661593374452825 2 65.118674331454145 8.6008347396267109 2 44.744173234004144 1.2 2 40.768495233596575 8.8952554745982049 2 61.459625896908875 2.9917457590494823 2 60.361937695757732 1.7376838657805429 2 17.688478906915499 10.191629808618458 2 64.710801159187 6.5721210744107754 2 20.081363444643653 2.1323956120975223 2 63.057690951421819 2.1642278032308195 2 61.898260906129082 5.0067674380870306 2 16.941315048491756 1.2 2 63.199302154547681 5.0960928041503548 2 42.802626303214652 5.5258428451182633 2 64.165451413072219 9.496358108442454 2 43.82212139683287 5.6691401369425352 2 62.481561738309168 5.7826968134748133 2 19.856295190686716 1 2 21.50851995287843 7.2146429153709768 2 </DataArray>
<DataArray Name="forces" NumberOfComponents="3" format="ascii" type="Float32">0 0 0 0.24238823261152581 -2.2571835564878233 0.0 -0.00093839051878064073 -2.1739241025305764 0.0 0.054221338623294119 1.0188836537455472 0.0 -0.067118286328467391 1.0169998389688986 0.0 -0.14875281182956313 -2.2404128623868642 0.0 -0.026636514354359986 0.39613795845417693 0.0 -0.13817535617678772 0.63280470899837882 0.0 0.085650568580129108 0.4910713725924461 0.0 0.0022195365837096026 0.32485368383783481 0.0 0.013424713803525279 -2.2828915889653829 0.0 0.17415793844365257 0.34086206437667377 0.0 -0.076208064391706021 0.56430232598205399 0.0 -0.09766995663861805 0.29893575898264113 0.0 1.2091677427315437 1.0897328465546559 0.0 0.24196335918773282 0.26343880849158019 0.0 0.081099900868238942 0.35452732011716215 0.0 -0.00058330489541713604 0.98752186848158496 0.0 0.045299801120057992 -2.5036297136733729 0.0 -0.061285673385434336 -2.089437725191519 0.0 0.22141455278934993 0.44541906287695465 0.0 0.11923472003779226 0.39471363080734406 0.0 -0.14698307277388423 0.34398891621258831 0.0 0.0092898296294270377 -1.9128973059373053 0.0 -0.080859660463071248 0.47779963154255711 0.0 -0.050086865463175589 -2.5197225819306976 0.0 0.011157691897891509 -2.4917762421077185 0.0 -0.040000956022871403 0.49069776436484197 0.0 -0.04941664278935283 0.34082387601196362 0.0 0.018243445326863936 0.58714196201551272 0.0 0.105679505483839 -2.2838103350218155 0.0 0.022700821712245522 0.3468955288671019 0.0 -0.037845160491334018 0.6008157348134745 0.0 -0.08028011562748838 0.66564878431427987 0.0 0.025863138630308202 0.36408906747730024 0.0 1.509620531945318 0.57743705408372814 0.0 0.13164863920179526 0.66535844684955181 0.0 0.031631336103940422 0.37317142767579592 0.0 -0.055813152229022577 0.5174047935340772 0.0 0.020100255634941111 -1.6245915508057669 0.0 0.187661103200019 0.52432658957720357 0.0 -0.0094315417289852037 0.21123301252878768 0.0 -0.072715267466260614 0.35816051465285342 0.0 -0.063667999078413806 0.41858059463249486 0.0 -0.057854834663602105 0.67814662825212157 0.0 2.0434705695205975 0.1974788757251309 0.0 0.15278636485400127 -2.403483339800935 0.0 -0.11198751149722797 -2.6968186037048243 0.0 0.01008120000535373 0.29569310945811467 0.0 -0.17892514217769975 0.34991291332528329 0.0 -0.046334838888194896 0.68742847103699034 0.0 1.1527221390835956 0.49411293714486171 0.0 0.063439912257806097 -2.3841586478363226 0.0 0.014985098170478606 0.57921902289359428 0.0 -0.10340931903915676 0.35721903760454765 0.0 0.055954573555088039 0.72039444553240362 0.0 0.029126756903398415 0.72771524928243037 0.0 0.10757065824669654 0.3604521144571492 0.0 -0.043103677799044893 0.34607215280339715 0.0 0.056085934225400869 0.52700252259697888 0.0 0.0071216465993670375 0.4235519474876146 0.0 0.1141854196614871 0.61297072871128244 0.0 -0.0052825899441997781 0.40916025603369771 0.0 -0.016510700128971177 -2.5614082156139197 0.0 -0.084163871079460911 0.4406994674708134 0.0 2.9417294851016953 -1.6355481018328957 0.0 -0.061887494259579956 -2.8230458062633503 0.0 0.15752200157315221 -2.3301390438188112 0.0 -0.08035022102067213 -2.6268667025748127 0.0 -0.020018021619217174 0.39321568220367653 0.0 0.041272186115571985 0.58631073703026504 0.0 -0.064769223801877218 0.37875399375450541 0.0 -0.093019124913217843 0.33646708957709814 0.0 -0.068185673277706416 -2.3035183512482731 0.0 -0.16502118403047272 0.89369989932514171 0.0 0.076258055924697699 0.36899876816751875 0.0 0.06924206518486159 0.8670136001401515 0.0 0.028125549468831834 0.26372483028102922 0.0 0.057074531360919334 -2.1069222124418943 0.0 0.11096551515880848 -1.9739074312538316 0.0 -0.041403121856486091 -1.7054053154221298 0.0 0.08861112749047835 -2.0311874128716347 0.0 0.080192734132823573 0.90676521594168125 0.0 -0.14764511207771389 0.58853840584881545 0.0 -0.027535662270938122 0.71887805136379235 0.0 0.053823292847359094 0.60653413148670188 0.0 -0.035569380861107225 -2.2317032174593261 0.0 -0.23565082594866416 0.70162704330530123 0.0 0.011106555646712646 0.60338909065916491 0.0 -0.055314829590693906 0.41102663740157985 0.0 -0.036002832654593364 -2.2384590980408148 0.0 0.12877542357109556 0.31880088182768718 0.0 -0.13128862896194582 0.42007842603318729 0.0 -0.086641202523359162 0.38044623456865928 0.0 0.0032956067423971225 0.16738640275386973 0.0 0.040305159477913896 0.55747300830893098 0.0 0.099413205820279696 -2.2780012043609852 0.0 -0.043388894618730883 0.45765316413308677 0.0 0.086989459300469807 1.0523686565025372 0.0 -0.015493540102394121 -1.9638449608655519 0.0 0.10888363735330331 -1.6483012830216841 0.0 0.08766754425927048 0.6537668512462721 0.0 0.41083300300219494 -2.2742321466821567 0.0 -0.050688380907845776 0.29117736214035161 0.0 -0.04111801030410378 0.44865538078058687 0.0 -0.017178793013386207 0.34884129829501798 0.0 -0.29062212758518613 0.26025367988737802 0.0 0.027340888247072592 0.43967617607208975 0.0 0.023117759249590808 0.6220846171309643 0.0 -0.017583012485611615 0.58799109861402399 0.0 0.041418340355634742 0.49388991216031675 0.0 0.0077104603553931617 0.584158052968902 0.0 0.15998579740573496 0.40472704214321276 0.0 0.11901371740310041 -2.3036664325643805 0.0 0.1200082065745382 0.49134407574458222 0.0 -0.21565720059213722 0.50723682157907479 0.0 -0.0083069102771492487 0.35620651033136563 0.0 -0.16282479580596629 -2.5122926597722528 0.0 -0.016378096062266756 0.39243599485507635 0.0 0.11126359881169368 0.34079421072746752 0.0 0.18789196671812519 0.61368850447843271 0.0 -0.016725993868498157 0.36567625004262277 0.0 0.014921686897115101 0.40917430984868119 0.0 0.023953450894865169 0.46433085292310522 0.0 -0.0070588351721531106 0.30729146882442815 0.0 0.20542126266135102 0.52701247540477902 0.0 -0.062204878063657487 -1.6930407570310204 0.0 0.094923598528135145 0.387372943059482 0.0 -0.15044566745407084 0.33912406498582859 0.0 0.065950374222334435 0.31358778511431495 0.0 -0.1256778912542324 0.62210316655108611 0.0 0.019418961195558748 0.35601274793932325 0.0 0.11408736633323968 -2.0474528343377707 0.0 0.057560406675387643 0.33950759355939858 0.0 </DataArray>
<DataArray Name="radii" format="ascii" type="Float32">0 1.2 1 1.4 1.4 1 1 1.2 1 1 1.2 1 1.2 1 1.4 1 1 1.4 1 1.4 1 1 1 1.4 1 1 1.2 1 1 1.2 1 1 1.2 1.2 1 1 1.2 1 1.2 1.4 1.2 1 1 1 1.2 1 1.2 1 1 1 1.2 1 1 1.2 1 1.2 1.2 1 1 1.2 1 1.2 1 1 1 1 1 1 1 1 1.2 1 1 1 1.4 1 1.4 1 1.2 1 1.4 1 1.4 1.2 1.2 1.2 1 1.4 1.2 1 1 1 1 1 1 1.2 1 1 1.4 1 1.2 1.2 1 1 1 1 1 1 1.2 1.2 1.2 1.2 1 1.2 1.2 1 1 1.2 1 1 1.2 1 1 1 1 1.2 1.2 1 1 1 1.2 1 1 1 </DataArray>
</PointData>
<CellData/>
</Piece>
</UnstructuredGrid>
</VTKFile>
