<?xml version="1.0" ?>
<VTKFile byte_order="LittleEndian" type="UnstructuredGrid" version="0.1">
<UnstructuredGrid>
<Piece NumberOfCells="0" NumberOfPoints="53">
<Points>
<DataArray NumberOfComponents="3" format="ascii" type="Float32">1.1684482653087291 1.1168648400331154 1.0937956717650887 3.2705206138368088 1 0.91498393854724236 1.1494387154860981 1.1212519956994691 4.1971898218545842 3.1625130855348944 1.1193904963615366 4.012816001832209 6.59824768421303 1.1091382232637774 5.76645109228674 7.24906025232122 1.1371624427120206 7.4044505980959379 4.3290527448694203 1.1417322819685001 8.8745616615035612 7.5527737452941235 1 9.0 3.2405449086729066 4.1970436949641039 1.1836926875154308 6.4584889609571663 1.1266274982783691 2.5355170653685146 8.0479072110949108 4.6094862597514759 2.6800428442039035 1.1875415448932294 3.1009000635912702 4.5076991564266837 5.0352776601439153 3.107245877620664 2.9300580374148066 8.8231713933432037 1.154114582117534 2.7473698605696271 2.7939335181600504 1.1655492260123359 5.7155340051901966 8.8061097464347569 3.2091514805909873 6.9425847724686385 1.1673451354501279 1.1509735728616521 7.3359915149089554 2.7161804910882545 1.1565872614302732 8.8735880897692674 5.2144153287429598 1 0.93195542397099518 7.2103594316786106 1 4.1906777699407556 3.3464447247307985 1 7.2065432944398315 9.0 2.7525879746347055 9.0 6.0796880240472655 1 9.0 1.1244058635174645 1.1642678802110364 2.7606810090374729 7.1215134081414586 1.1278201350991779 1.1075480518670504 8.8097432662215009 3.1408614300914 1.1869177731788085 1.1144486377942182 1.1491515274917719 5.8064168616132106 2.7759121866731507 2.8741437009453237 2.855140886723869 8.8535911365425548 1.1336078932548546 5.8531277271835735 4.5997359522920442 3.1280743458355147 6.7252097313580368 6.9591909132367142 4.4000997435467282 5.9919489114871523 3.5302839923512157 3.3664100821382852 8.8268798172011849 5.3094673149721778 1.1410726823042481 7.3679058209464721 1.18465227037835 3.0998560697739665 1.1758693602373234 5.3112493941781365 1.1333121830766562 4.0829566466892331 8.8501043047106265 3.5104999626987641 4.600398846980867 1.1926424201730106 4.5488273081000843 2.8539757622802533 4.4123591388434029 1.1310719346100881 2.4647266596124124 7.2478574685876218 2.7188990951356327 3.3604225578049287 4.5996137672397701 1.1273837211557589 5.6942632670371065 8.8969206800003633 1.141059581582627 7.5096204104170701 1.145616666398078 3.3819617248178591 6.6486286664849192 1.1055781047285349 1.1144386731843392 8.9000000000000004 2.718021911416693 1 2.3228647049005633 6.2598809928490722 4.4296410214940609 3.9807222072921911 3.9567193162230212 2.8197330125972599 4.653405888550969 9.0 1 9.0 5.4570977601965813 2.7027138019860928 9.0 4.3466144808197678 2.5471860059725868 0.97369784404368376 7.5034570955054471 2.5340056146188585 5.4535654264610498 2.7372874548269204 2.5594618560560205 7.2366954589541868 7.2190333644179647 2.7216080693051645 9.0 6.5998429734048241 2.8466838681771844 7.1902618295234353 </DataArray>
</Points>
<Cells>
<DataArray Name="connectivity" format="ascii" type="Int32">0</DataArray>
<DataArray Name="offsets" format="ascii" type="Int32">0</DataArray>
<DataArray Name="types" format="ascii" type="UInt8">1</DataArray>
</Cells>
<PointData>
<DataArray Name="Points" NumberOfComponents="3" format="ascii" type="Float32">1.1684482653087291 1.1168648400331154 1.0937956717650887 3.2705206138368088 1 0.91498393854724236 1.1494387154860981 1.1212519956994691 4.1971898218545842 3.1625130855348944 1.1193904963615366 4.012816001832209 6.59824768421303 1.1091382232637774 5.76645109228674 7.24906025232122 1.1371624427120206 7.4044505980959379 4.3290527448694203 1.1417322819685001 8.8745616615035612 7.5527737452941235 1 9.0 3.2405449086729066 4.1970436949641039 1.1836926875154308 6.4584889609571663 1.1266274982783691 2.5355170653685146 8.0479072110949108 4.6094862597514759 2.6800428442039035 1.1875415448932294 3.1009000635912702 4.5076991564266837 5.0352776601439153 3.107245877620664 2.9300580374148066 8.8231713933432037 1.154114582117534 2.7473698605696271 2.7939335181600504 1.1655492260123359 5.7155340051901966 8.8061097464347569 3.2091514805909873 6.9425847724686385 1.1673451354501279 1.1509735728616521 7.3359915149089554 2.7161804910882545 1.1565872614302732 8.8735880897692674 5.2144153287429598 1 0.93195542397099518 7.2103594316786106 1 4.1906777699407556 3.3464447247307985 1 7.2065432944398315 9.0 2.7525879746347055 9.0 6.0796880240472655 1 9.0 1.1244058635174645 1.1642678802110364 2.7606810090374729 7.1215134081414586 1.1278201350991779 1.1075480518670504 8.8097432662215009 3.1408614300914 1.1869177731788085 1.1144486377942182 1.1491515274917719 5.8064168616132106 2.7759121866731507 2.8741437009453237 2.855140886723869 8.8535911365425548 1.1336078932548546 5.8531277271835735 4.5997359522920442 3.1280743458355147 6.7252097313580368 6.9591909132367142 4.4000997435467282 5.9919489114871523 3.5302839923512157 3.3664100821382852 8.8268798172011849 5.3094673149721778 1.1410726823042481 7.3679058209464721 1.18465227037835 3.0998560697739665 1.1758693602373234 5.3112493941781365 1.1333121830766562 4.0829566466892331 8.8501043047106265 3.5104999626987641 4.600398846980867 1.1926424201730106 4.5488273081000843 2.8539757622802533 4.4123591388434029 1.1310719346100881 2.4647266596124124 7.2478574685876218 2.7188990951356327 3.3604225578049287 4.5996137672397701 1.1273837211557589 5.6942632670371065 8.8969206800003633 1.141059581582627 7.5096204104170701 1.145616666398078 3.3819617248178591 6.6486286664849192 1.1055781047285349 1.1144386731843392 8.9000000000000004 2.718021911416693 1 2.3228647049005633 6.2598809928490722 4.4296410214940609 3.9807222072921911 3.9567193162230212 2.8197330125972599 4.653405888550969 9.0 1 9.0 5.4570977601965813 2.7027138019860928 9.0 4.3466144808197678 2.5471860059725868 0.97369784404368376 7.5034570955054471 2.5340056146188585 5.4535654264610498 2.7372874548269204 2.5594618560560205 7.2366954589541868 7.2190333644179647 2.7216080693051645 9.0 6.5998429734048241 2.8466838681771844 7.1902618295234353 </DataArray>
<DataArray Name="forces" NumberOfComponents="3" format="ascii" type="Float32">-0.29532627185231475 -0.439398985883724 -0.99407936264351759 -0.0005375449423511286 -0.12892289973642554 -0.79575581888232927 -0.47325688434132129 -0.39833492586744557 -2.9761514130366429e-05 -0.0002426858452132391 -0.41575867974045311 0.0011538725063913874 -0.00015024605080932196 -0.5117206172250095 -3.4585486386965597e-06 0.00017062405375542489 -0.24941211557833093 0.00034548061071395381 -0.000280949929982649 -0.20663812537506576 0.69790196103077951 -4.4533819980430156e-05 -0.3239014860249721 0.68872527530410543 -0.00034816298963791237 0.3392416349219276 -0.15263749670571658 -0.00076555228363120453 -0.34801987499963349 0.0007030887027567323 0.013297413210634823 0.34212277191508916 0.0022415134848910861 -0.11661194339149536 0.33850650944002003 -0.001256680917890024 0.0015734666649981945 0.33648554253506968 -0.0016579103985934138 0.21688573628774346 -0.090738997300112367 -0.00075009175594610566 9.6782480662584505e-05 0.016290007109745194 0.00083588947729447416 0.057187620718632343 0.33770290936279851 0.00066936317093543862 -0.30565163848262578 -0.12013904653575111 -0.00013979505106454827 -0.00022912308701176208 -0.06759455944073689 0.68878926680071439 -0.00040991601610411432 -0.27865375168867546 -0.63690162062553768 -0.00027899715543674465 -0.45941660431564746 -0.00084211019528546149 0.00076175284812131372 -0.50124566947705662 0.00016436377048758243 0.22677362543938198 0.23516904287319967 0.082358569781404586 -0.00016971631416776156 -0.27545674362963191 0.5693723770836393 -0.70756599343042526 0.0042965277605392649 2.5007018921441304e-05 -0.00051843779442184434 -0.33685671742970441 -0.86535619783660866 0.091197600290938499 0.33823193696783271 -0.1224504868728418 -0.80076626845846854 -0.137193508722941 -0.00052347186913424132 0.0010240508262870825 0.33870642763106457 -0.00019437352497264637 0.50161649476025572 -0.28268292777205534 -0.00018124111344638982 0.0030705471567973736 0.3398194332977526 -0.00045979958922977987 0.0065622299227691312 0.33832874655127176 -0.0090576091272007303 0.00020205826820762773 0.33914626484808474 0.2515968227982614 0.0011705401247183583 -0.21281202077779438 0.00031285045462689162 -0.1436557392140228 0.33841723376585475 -0.22586434464708308 -0.00034261712934104301 -0.28545079411381591 0.00037243758560364043 0.46897952390666936 0.33929771057026831 0.003539254060551611 -0.068867421757375827 0.33870493297905907 -0.00075503551115160827 -0.00074444462626652337 -0.30641966426083367 -4.3929455227825764e-05 0.0041830963689718607 0.34134786427965796 -0.0035725824854093285 0.00062526668858311346 -0.3409415800895671 0.00025527061776023374 0.90718381635661227 -0.21293464437718845 2.7471787632515898e-06 -0.50903151033403293 0.33851894490146955 -0.00040140929707400963 -0.88379503011814609 -0.4621080640802695 0.93600645017473605 -0.00027561994241420695 -0.45638095980301596 0.00096145112383502762 -0.00062829297611464302 0.23660581733897118 -0.0066548623457604109 0.0030247819494379699 0.23597026007328867 -0.0012339135625246689 0.64282822661082362 -0.3374537322023653 0.67104148163022082 -0.00071814999307351357 0.23522855965243566 0.12335294588691673 -0.00061644151125070292 0.235270243323354 -0.24618987628613814 0.0005757292565011056 0.23243897322297238 -0.0031958490690566117 0.0014485096188546209 0.23516384213722547 0.00078778928680789395 -0.00079757688524231818 0.23516227264286618 0.078681252512374025 0.0043309075286706716 0.23659578468478115 -0.0032845765796123277 </DataArray>
<DataArray Name="radii" format="ascii" type="Float32">1.2 1 1.2 1.2 1.2 1.2 1.2 1 1.2 1.2 1.2 1.2 1.2 1.2 1.2 1.2 1.2 1.2 1 1 1 1 1 1.2 1.2 1.2 1.2 1.2 1.2 1.2 1.2 1.2 1.2 1.2 1.2 1.2 1.2 1.2 1.2 1.2 1.2 1.2 1.2 1 1 1 1 1 1 1 1 1 1 </DataArray>
</PointData>
<CellData/>
</Piece>
</UnstructuredGrid>
</VTKFile>
