<?xml version="1.0" ?>
<VTKFile byte_order="LittleEndian" type="UnstructuredGrid" version="0.1">
<UnstructuredGrid>
<Piece NumberOfCells="0" NumberOfPoints="53">
<Points>
<DataArray NumberOfComponents="3" format="ascii" type="Float32">1.168861743822712 1.1175942229349887 1.0940328000753283 3.2789249506976748 1 0.91480752309111946 1.1504499313143279 1.1226123389088301 4.1960205009832308 3.1796888704510238 1.117778905443745 3.9896127572289188 6.599387077531305 1.1129796227309492 5.7683714757505733 7.24941682309524 1.1384820826707156 7.397447876857381 4.3343591164762012 1.1419756275953463 8.8740673287303675 7.5551203710317072 1 9.0 3.245733547920254 4.1898225791699693 1.1838583622763186 6.4856800190277255 1.1226837724393408 2.5227718684655449 7.8894296671163051 4.5475803566977691 2.6400881341966107 1.1905061134430077 3.1073672324817823 4.5308165774258846 5.0070423256078938 3.1482239028821817 2.9585269894951014 8.8227969564710715 1.1573076855847031 2.7459510322047542 2.7877122813166793 1.1659391619383048 5.7009342752245882 8.8100049971048353 3.2150493031507277 6.9351263022510423 1.1664175997938089 1.1498335585406432 7.3389046380933749 2.7207472805646153 1.1563001727504696 8.8727787004256804 5.2205037416378781 1 0.93192582030888227 7.2308974078418577 1 4.2179428402814834 3.3387099111133471 1 7.1997437707374043 9.0 2.7511519836461633 9.0 6.0825163700811364 1 9.0 1.1247867058201335 1.1629929741776008 2.7619205057588365 7.1240869997238683 1.1279066773681259 1.105035311993954 8.8112782857273082 3.139433871998206 1.1868395122845916 1.1142797798964064 1.1488925238905503 5.8138232540002974 2.7566367917096 2.8734444941275781 2.8543616613140768 8.8472497260169405 1.1401457387952898 5.8300154459340092 4.5557732233570336 3.1132124077315919 6.7285369923506222 6.9072574707963836 4.462401627976873 6.1800476305806606 3.5295794497468505 3.3612031021604976 8.8278883023478585 5.2912171837185848 1.1361379912583112 7.3565142181212835 1.1836579982895081 3.1049097211490415 1.1752706336248526 5.3429753688091077 1.1351021396804917 4.0619344999294755 8.8483307915123834 3.482031905993924 4.5466447532117984 1.1918087269294204 4.5490528189434603 2.8657639950560503 4.4290630185084687 1.1356934819412494 2.4631082197358727 7.1787040727152061 2.6831476547063806 3.4150824154892856 4.5861301811583219 1.1232640687880491 5.6731420224998779 8.8964473511868611 1.1417870059783783 7.4995844472392807 1.1433710415577971 3.3811922930631408 6.6591079323543143 1.1063589607412336 1.1142969553375082 8.9000000000000004 2.7223356113026096 1 2.3087592144016584 6.2811494286314256 4.4022650646619885 4.1245751954073189 3.875402713282857 2.8333151941932071 4.6799355074685272 9.0 1 9.0 5.4692576108255313 2.7016780932125553 9.0 4.3564071303663097 2.5478939593788756 0.9760053966818647 7.4565270599655991 2.6185786020460804 5.5184816996633863 2.7195998873225662 2.5581445754424017 7.228069915839014 7.2325585824852867 2.7232249761360707 9.0 6.5275796213573365 2.8337330727917127 7.2469750121891163 </DataArray>
</Points>
<Cells>
<DataArray Name="connectivity" format="ascii" type="Int32">0</DataArray>
<DataArray Name="offsets" format="ascii" type="Int32">0</DataArray>
<DataArray Name="types" format="ascii" type="UInt8">1</DataArray>
</Cells>
<PointData>
<DataArray Name="Points" NumberOfComponents="3" format="ascii" type="Float32">1.168861743822712 1.1175942229349887 1.0940328000753283 3.2789249506976748 1 0.91480752309111946 1.1504499313143279 1.1226123389088301 4.1960205009832308 3.1796888704510238 1.117778905443745 3.9896127572289188 6.599387077531305 1.1129796227309492 5.7683714757505733 7.24941682309524 1.1384820826707156 7.397447876857381 4.3343591164762012 1.1419756275953463 8.8740673287303675 7.5551203710317072 1 9.0 3.245733547920254 4.1898225791699693 1.1838583622763186 6.4856800190277255 1.1226837724393408 2.5227718684655449 7.8894296671163051 4.5475803566977691 2.6400881341966107 1.1905061134430077 3.1073672324817823 4.5308165774258846 5.0070423256078938 3.1482239028821817 2.9585269894951014 8.8227969564710715 1.1573076855847031 2.7459510322047542 2.7877122813166793 1.1659391619383048 5.7009342752245882 8.8100049971048353 3.2150493031507277 6.9351263022510423 1.1664175997938089 1.1498335585406432 7.3389046380933749 2.7207472805646153 1.1563001727504696 8.8727787004256804 5.2205037416378781 1 0.93192582030888227 7.2308974078418577 1 4.2179428402814834 3.3387099111133471 1 7.1997437707374043 9.0 2.7511519836461633 9.0 6.0825163700811364 1 9.0 1.1247867058201335 1.1629929741776008 2.7619205057588365 7.1240869997238683 1.1279066773681259 1.105035311993954 8.8112782857273082 3.139433871998206 1.1868395122845916 1.1142797798964064 1.1488925238905503 5.8138232540002974 2.7566367917096 2.8734444941275781 2.8543616613140768 8.8472497260169405 1.1401457387952898 5.8300154459340092 4.5557732233570336 3.1132124077315919 6.7285369923506222 6.9072574707963836 4.462401627976873 6.1800476305806606 3.5295794497468505 3.3612031021604976 8.8278883023478585 5.2912171837185848 1.1361379912583112 7.3565142181212835 1.1836579982895081 3.1049097211490415 1.1752706336248526 5.3429753688091077 1.1351021396804917 4.0619344999294755 8.8483307915123834 3.482031905993924 4.5466447532117984 1.1918087269294204 4.5490528189434603 2.8657639950560503 4.4290630185084687 1.1356934819412494 2.4631082197358727 7.1787040727152061 2.6831476547063806 3.4150824154892856 4.5861301811583219 1.1232640687880491 5.6731420224998779 8.8964473511868611 1.1417870059783783 7.4995844472392807 1.1433710415577971 3.3811922930631408 6.6591079323543143 1.1063589607412336 1.1142969553375082 8.9000000000000004 2.7223356113026096 1 2.3087592144016584 6.2811494286314256 4.4022650646619885 4.1245751954073189 3.875402713282857 2.8333151941932071 4.6799355074685272 9.0 1 9.0 5.4692576108255313 2.7016780932125553 9.0 4.3564071303663097 2.5478939593788756 0.9760053966818647 7.4565270599655991 2.6185786020460804 5.5184816996633863 2.7195998873225662 2.5581445754424017 7.228069915839014 7.2325585824852867 2.7232249761360707 9.0 6.5275796213573365 2.8337330727917127 7.2469750121891163 </DataArray>
<DataArray Name="forces" NumberOfComponents="3" format="ascii" type="Float32">-0.29236559878826701 -0.43392179082924975 -0.99495500587762531 -0.0010020966079909432 -0.1274272537327375 -0.79989545278029073 -0.46523913923775695 -0.38680532826538883 0.0003975828950892879 -0.0021692739051376447 -0.43218775627218187 0.0023950734857738215 0.0002376591582426979 -0.47724953353073402 -0.00060112306835198581 -7.8572283625621964e-05 -0.23779996614288756 0.00038666586330721175 -0.00017048205263145433 -0.20499811789653702 0.69543839550963837 -0.00013148766121707373 -0.32311915340032876 0.67802396454065073 -0.00058055830714198731 0.34083688474834473 -0.15155824885112107 -0.0034014210739723716 -0.38613461932130277 0.00074108348984841532 0.011792874964535825 0.34465301694604245 0.0051377536898625786 -0.089140696006202974 0.33906845590161144 -0.0024168557854266082 0.0019587047591961906 0.33582481637264083 -0.0029726400739395337 0.21404685577980725 -0.06104123446694059 0.00038443164899183355 0.0008057683645260735 0.02000205640264123 0.001608592917076837 0.093939652650282118 0.34000325468318437 -0.0011625912373200847 -0.31531433517435409 -0.13121785631161748 -0.00021310436619791442 -0.00029487355973045715 -0.070501047867872799 0.68333911211461973 -0.00086427344767317504 -0.28195836677526448 -0.63916708097258379 -0.0025313642565874192 -0.50201279617882977 -0.0038114904933913563 0.00076985200399230791 -0.49536957277396021 0.00083513176668373931 0.23943392883579129 0.23632176600988933 0.07221523644121082 -9.0979446070921233e-05 -0.27681668997868369 0.54843694007851096 -0.7061981783608644 -0.0076605058133233372 4.7290497551172317e-05 -1.340193707788373e-05 -0.33709533728108992 -0.89164941397327524 0.10589490757592304 0.34042049409215047 -0.12356741653591465 -0.80485057789231318 -0.14005348787005853 -0.00056820177587257187 0.0015727466723377791 0.339847688905277 -0.0001884929662822471 0.44364059312993809 -0.22217944403434109 0.0022206403561143354 0.0031368269211359545 0.34092216115561674 -7.4825660046302922e-05 0.0028933905592093065 0.33468136135740673 -0.01773821579329514 -8.8598173432513638e-05 0.3401775830544671 0.26185089391957939 0.0017586536437605993 -0.2598092811636154 0.00096345179306093348 -0.15343952109211922 0.33941089052556117 -0.23219078058706194 -0.0038109857154778326 -0.26953517477437761 0.0020904927785775351 0.45379101257235266 0.34231679018371164 0.0083152006233365439 -0.076910101917170043 0.34000992404413682 -0.0011481834658649825 -0.0022903620125079354 -0.2639829006466653 0.0002154307411289802 0.0055657432018049891 0.34322241530698411 -0.0035294748677867777 0.0014175814750482241 -0.38068605828118607 0.0022634175047958893 0.90557054385903568 -0.2067691378173466 0.00096976458995690074 -0.53170477015301099 0.34000927570740092 -0.0011817100699850897 -0.87922131407004467 -0.46488073759922499 0.93892733467044964 -0.00082641696516283503 -0.45154036058057373 0.0013036481139363856 -0.0060392978526594907 0.23966627441535054 -0.01319165879453886 0.007550552630279414 0.23402224489645662 -0.0026310182341637428 0.64329170965260307 -0.33704194468880455 0.66140870590008594 -0.0010156457301581101 0.23643911114807245 0.12236729954110517 -0.0011848052490702572 0.2359325816246049 -0.2252918893997152 0.0035961165266087253 0.22798152272598532 -0.0047459080417997998 0.0010431001758303693 0.23616263963286144 0.00074658790585241386 -0.0012068971634676129 0.23558406273913768 0.099582256044803211 0.0056110948588051143 0.23705873809726491 -0.005018581668353353 </DataArray>
<DataArray Name="radii" format="ascii" type="Float32">1.2 1 1.2 1.2 1.2 1.2 1.2 1 1.2 1.2 1.2 1.2 1.2 1.2 1.2 1.2 1.2 1.2 1 1 1 1 1 1.2 1.2 1.2 1.2 1.2 1.2 1.2 1.2 1.2 1.2 1.2 1.2 1.2 1.2 1.2 1.2 1.2 1.2 1.2 1.2 1 1 1 1 1 1 1 1 1 1 </DataArray>
</PointData>
<CellData/>
</Piece>
</UnstructuredGrid>
</VTKFile>
