<?xml version="1.0" ?>
<VTKFile byte_order="LittleEndian" type="UnstructuredGrid" version="0.1">
<UnstructuredGrid>
<Piece NumberOfCells="0" NumberOfPoints="23">
<Points>
<DataArray NumberOfComponents="3" format="ascii" type="Float32">1.1228513331692518 1.1336913209883082 1.4491822613238088 2.9459473989876162 1.5027218978480923 0.97681769900255611 1.1664431595418066 1.1244842186931738 4.7827742580108126 2.7335201977920915 1.1438164575604883 3.0955689565399429 5.185885961634277 1.1703673126029104 6.6463280637238 7.1286377615987382 1.1759082192223613 6.6178368436826025 4.5828995180353047 1.1534179473331911 8.7841305622141892 8.437093447651014 1 9.0 1.8592819079090586 3.3432364945633957 1.1773234538551467 7.0063600142811486 1.1587872616623369 3.0642174390660566 8.0118226065895612 3.0782197830004017 2.1069299638748049 1.1716178681904588 2.7740408261162832 3.2707658748538702 4.895384185852155 1.1657486452479633 2.8179241410544282 8.898453993713126 1.1524011606233273 3.1931493864737122 4.2124549742975672 1.1393686464577315 4.8081104373903019 8.9000000000000004 1.1475751807294177 7.2146000408938189 1.1630987565773341 1.1626692832522518 7.0198950699093041 2.4957384900556443 1.1195109378039612 8.8402538222755176 4.5060108203280507 1 0.94803926879147749 6.644380529367095 1 4.8517003785886024 3.2355464703124888 1 6.8439619616470457 9.0 2.7781445597731156 8.4660177581505085 6.6300464540634918 1 8.5202479747441906 </DataArray>
</Points>
<Cells>
<DataArray Name="connectivity" format="ascii" type="Int32">0</DataArray>
<DataArray Name="offsets" format="ascii" type="Int32">0</DataArray>
<DataArray Name="types" format="ascii" type="UInt8">1</DataArray>
</Cells>
<PointData>
<DataArray Name="Points" NumberOfComponents="3" format="ascii" type="Float32">1.1228513331692518 1.1336913209883082 1.4491822613238088 2.9459473989876162 1.5027218978480923 0.97681769900255611 1.1664431595418066 1.1244842186931738 4.7827742580108126 2.7335201977920915 1.1438164575604883 3.0955689565399429 5.185885961634277 1.1703673126029104 6.6463280637238 7.1286377615987382 1.1759082192223613 6.6178368436826025 4.5828995180353047 1.1534179473331911 8.7841305622141892 8.437093447651014 1 9.0 1.8592819079090586 3.3432364945633957 1.1773234538551467 7.0063600142811486 1.1587872616623369 3.0642174390660566 8.0118226065895612 3.0782197830004017 2.1069299638748049 1.1716178681904588 2.7740408261162832 3.2707658748538702 4.895384185852155 1.1657486452479633 2.8179241410544282 8.898453993713126 1.1524011606233273 3.1931493864737122 4.2124549742975672 1.1393686464577315 4.8081104373903019 8.9000000000000004 1.1475751807294177 7.2146000408938189 1.1630987565773341 1.1626692832522518 7.0198950699093041 2.4957384900556443 1.1195109378039612 8.8402538222755176 4.5060108203280507 1 0.94803926879147749 6.644380529367095 1 4.8517003785886024 3.2355464703124888 1 6.8439619616470457 9.0 2.7781445597731156 8.4660177581505085 6.6300464540634918 1 8.5202479747441906 </DataArray>
<DataArray Name="forces" NumberOfComponents="3" format="ascii" type="Float32">-0.49674928718601669 -0.19392250041021666 0.0050403682195135913 0.048985316461754635 0.1396422480616844 -0.1492675371964069 -0.21606772044930192 -0.25320572188428975 0.0092218229550691255 -0.0082605285298108094 -0.12872818686587767 0.0027284242327399594 -0.030818477612143597 0.042228990468595337 0.091374471843912008 -0.014136733961933975 0.077906099699983217 0.055766183516989226 0.049752468595354885 -0.066905560546519582 0.16596388122383537 0.020973514230496787 -0.081513779445516771 0.3788000254491401 0.058713690197403884 0.22159642049710829 -0.1460110536713394 -0.026446593861789089 -0.032333309654196465 0.084566079340360811 -0.038912026600173691 0.20974895165208282 0.03595599838928519 -0.18274850784057761 0.26003384782417588 0.0059526358511060307 -0.0076792287322736547 0.012490048623331338 -0.009955440492560752 0.63393125515578219 -0.073452505478869487 0.028679468494424765 -0.04420214417307114 -0.15736700961675693 0.037456700735552462 0.64388576963462585 -0.10452630326118162 0.061837143403864703 -0.23760185521677929 -0.0073375250625917973 0.010869294431517703 0.0090675673628472647 -0.28522796981388804 0.25918863336606102 0.090915298162298874 -0.1668889517570239 -0.33456775404977418 -0.10777657722381162 -0.23953179460648336 0.065995156788115794 -0.019484030967583957 -0.10989219497168651 -0.015141220649734152 0.035724025732308679 0.19807490928474242 0.09656765229346724 0.0044973343425467327 -0.22873858939184086 0.11388033943457571 </DataArray>
<DataArray Name="radii" format="ascii" type="Float32">1.2 1 1.2 1.2 1.2 1.2 1.2 1 1.2 1.2 1.2 1.2 1.2 1.2 1.2 1.2 1.2 1.2 1 1 1 1 1 </DataArray>
</PointData>
<CellData/>
</Piece>
</UnstructuredGrid>
</VTKFile>
