<?xml version="1.0" ?>
<VTKFile byte_order="LittleEndian" type="UnstructuredGrid" version="0.1">
<UnstructuredGrid>
<Piece NumberOfCells="0" NumberOfPoints="53">
<Points>
<DataArray NumberOfComponents="3" format="ascii" type="Float32">1.1686573753356577 1.1173569957709268 1.09395955094056 3.2754716856043147 1 0.91483959310618557 1.1499493406794632 1.1220758917328875 4.1970100418578751 3.1717845611765831 1.1181993827971217 3.9984941131050125 6.5991654120734156 1.1114383042435965 5.767268784328782 7.2493556595581659 1.1379589995696959 7.3998832404444341 4.3328467860240893 1.141920885058844 8.8743081326684674 7.5544929993709209 1 9.0 3.2437706482301625 4.1930048689609993 1.1838056333319329 6.4738626645506674 1.1241801429795097 2.5271884932673485 7.9433071144593717 4.5705849241515839 2.6589799746242502 1.189401856083504 3.1047041329789287 4.5218853414141451 5.0163386987632652 3.1327564705204156 2.9473949605006169 8.822725310563623 1.1562471299388599 2.7476044297413025 2.7904846410845439 1.1657825312105139 5.7067645711955635 8.808513960452661 3.2141427135967566 6.9380942967632411 1.1666812405051146 1.1502385176797969 7.3379631425052976 2.7192603771196504 1.1563971665167587 8.8731005323723444 5.2179189634297671 1 0.93187764718167987 7.2213828280848693 1 4.2056655873846749 3.3413018355174984 1 7.2027509808233869 9.0 2.751279744574413 9.0 6.0818563665675152 1 9.0 1.1244920735542667 1.1634434488684118 2.7615953440018912 7.1236606654601076 1.1278683854750513 1.1061188981096137 8.810652253796377 3.141374199021719 1.1869878117136647 1.1143971807502266 1.1490009701066217 5.8113595166342371 2.7633414071847127 2.8737186030226645 2.8542346322532821 8.8498742103474282 1.1375551066034308 5.8396041387234785 4.5698962878057747 3.1180209551083116 6.7275186096968653 6.921147185637512 4.438268720559905 6.1091991976912405 3.5295408127965699 3.3628937852681591 8.8275778990267781 5.2977131467174408 1.1377956606115265 7.3610651240522573 1.1839929822627824 3.1031875949588188 1.1754579888397894 5.3281353613025439 1.1349144995788121 4.0708630443338913 8.8492066524522315 3.4926177795882283 4.5696160889778259 1.1921142036460193 4.5493304646856183 2.8613733485303716 4.4220064042597098 1.1338937029270437 2.4636678791606386 7.2029333349644844 2.6965973855763492 3.3970164985022615 4.5913060890645578 1.1245640697558068 5.6821283171295143 8.8966213038870769 1.1416270405454714 7.5033480569460913 1.1441417094100925 3.3817206707190897 6.654811886194282 1.1061076753700529 1.1143521738912561 8.9000000000000004 2.7203933202441823 1 2.3139050947343889 6.266547599056727 4.4147189481851177 4.0704268231838379 3.9063993428149262 2.8258523715018349 4.6695357246027847 9.0 1 9.0 5.4648883370666512 2.7026154327216854 9.0 4.3523422901339801 2.5475975826522212 0.9750549956443566 7.4749996432996424 2.5852102012525857 5.4958531512284168 2.7248236385772753 2.5589186696197244 7.2310156305747881 7.2274863791313324 2.7222305536862832 9.0 6.5519999861523859 2.8375653126956628 7.2260809018640453 </DataArray>
</Points>
<Cells>
<DataArray Name="connectivity" format="ascii" type="Int32">0</DataArray>
<DataArray Name="offsets" format="ascii" type="Int32">0</DataArray>
<DataArray Name="types" format="ascii" type="UInt8">1</DataArray>
</Cells>
<PointData>
<DataArray Name="Points" NumberOfComponents="3" format="ascii" type="Float32">1.1686573753356577 1.1173569957709268 1.09395955094056 3.2754716856043147 1 0.91483959310618557 1.1499493406794632 1.1220758917328875 4.1970100418578751 3.1717845611765831 1.1181993827971217 3.9984941131050125 6.5991654120734156 1.1114383042435965 5.767268784328782 7.2493556595581659 1.1379589995696959 7.3998832404444341 4.3328467860240893 1.141920885058844 8.8743081326684674 7.5544929993709209 1 9.0 3.2437706482301625 4.1930048689609993 1.1838056333319329 6.4738626645506674 1.1241801429795097 2.5271884932673485 7.9433071144593717 4.5705849241515839 2.6589799746242502 1.189401856083504 3.1047041329789287 4.5218853414141451 5.0163386987632652 3.1327564705204156 2.9473949605006169 8.822725310563623 1.1562471299388599 2.7476044297413025 2.7904846410845439 1.1657825312105139 5.7067645711955635 8.808513960452661 3.2141427135967566 6.9380942967632411 1.1666812405051146 1.1502385176797969 7.3379631425052976 2.7192603771196504 1.1563971665167587 8.8731005323723444 5.2179189634297671 1 0.93187764718167987 7.2213828280848693 1 4.2056655873846749 3.3413018355174984 1 7.2027509808233869 9.0 2.751279744574413 9.0 6.0818563665675152 1 9.0 1.1244920735542667 1.1634434488684118 2.7615953440018912 7.1236606654601076 1.1278683854750513 1.1061188981096137 8.810652253796377 3.141374199021719 1.1869878117136647 1.1143971807502266 1.1490009701066217 5.8113595166342371 2.7633414071847127 2.8737186030226645 2.8542346322532821 8.8498742103474282 1.1375551066034308 5.8396041387234785 4.5698962878057747 3.1180209551083116 6.7275186096968653 6.921147185637512 4.438268720559905 6.1091991976912405 3.5295408127965699 3.3628937852681591 8.8275778990267781 5.2977131467174408 1.1377956606115265 7.3610651240522573 1.1839929822627824 3.1031875949588188 1.1754579888397894 5.3281353613025439 1.1349144995788121 4.0708630443338913 8.8492066524522315 3.4926177795882283 4.5696160889778259 1.1921142036460193 4.5493304646856183 2.8613733485303716 4.4220064042597098 1.1338937029270437 2.4636678791606386 7.2029333349644844 2.6965973855763492 3.3970164985022615 4.5913060890645578 1.1245640697558068 5.6821283171295143 8.8966213038870769 1.1416270405454714 7.5033480569460913 1.1441417094100925 3.3817206707190897 6.654811886194282 1.1061076753700529 1.1143521738912561 8.9000000000000004 2.7203933202441823 1 2.3139050947343889 6.266547599056727 4.4147189481851177 4.0704268231838379 3.9063993428149262 2.8258523715018349 4.6695357246027847 9.0 1 9.0 5.4648883370666512 2.7026154327216854 9.0 4.3523422901339801 2.5475975826522212 0.9750549956443566 7.4749996432996424 2.5852102012525857 5.4958531512284168 2.7248236385772753 2.5589186696197244 7.2310156305747881 7.2274863791313324 2.7222305536862832 9.0 6.5519999861523859 2.8375653126956628 7.2260809018640453 </DataArray>
<DataArray Name="forces" NumberOfComponents="3" format="ascii" type="Float32">-0.2939902842224254 -0.43571317804742588 -0.99464745189401493 -0.00067715793712046224 -0.12810166079155716 -0.79879501143671661 -0.46946953922160373 -0.39145046616767798 0.00010575794138367733 -0.0016583262363133872 -0.42781168275440196 0.0018986863742029847 -0.00012917480946901359 -0.49122983700561124 -0.00034064238172566361 -0.0001073346005228959 -0.24246870611134291 0.00051169864718439428 -0.00042898118090017867 -0.20530666708349918 0.69700190322904354 -0.00017681970435433347 -0.32374035943711926 0.68193192678129599 -0.00040463502525422967 0.34005173201463756 -0.15190133278671145 -0.0024158055249750565 -0.37171282681248713 0.0011395645378934338 0.012477267935845289 0.34492303374405608 0.0034893221864334134 -0.099409394573950663 0.33892494037137905 -0.0018708906965256844 0.0023175486575267822 0.33617879101702169 -0.0023193631173638457 0.21316084990300413 -0.070928105963582663 0.00036617280199997132 0.00056403252917106017 0.018512882468305153 0.0011783629533228951 0.079859988757854078 0.33911476801988111 0.00083237640724878603 -0.31252620604502246 -0.12728821124327638 -0.00023992356087969638 -0.00037714603754906344 -0.069520779785489262 0.68567474865643174 -0.00046101647056544237 -0.28071195179951808 -0.63897998592769178 -0.0019508102855671041 -0.48841302030084482 -0.0024546705989607343 0.00056200446715852503 -0.49701267519299808 0.00060737215385320547 0.23461228684553734 0.23558576643186241 0.075035422359624529 -0.00020206271583812774 -0.27568994107181755 0.5562033767411918 -0.70825583353528054 -0.0034274460759267378 -0.00015069088237532058 -0.00013952390864852005 -0.33711752820052848 -0.88059414689891158 0.09991693914417614 0.33975933028050709 -0.12205285848340398 -0.80294478943600001 -0.13889626789688683 -0.0005859027613520397 0.0015832372759958281 0.33955347494486871 0.00010800406095203691 0.46781446775548863 -0.24625717657989377 0.0022764886418110489 0.0035253282482612947 0.34065598615817028 -0.00028457216812321356 0.0036226039210537214 0.33367421944124898 -0.015840843256896733 3.8178140196895582e-05 0.33986992356359996 0.25867758236480565 0.00149836790037923 -0.24400080711600047 0.0010068461499955651 -0.15014402094639476 0.33906845848227224 -0.23020129659366764 -0.0032394777087746407 -0.27102577263721794 0.0019813056009718721 0.46155284999227847 0.34195871535760541 0.0041456515173188824 -0.073967880362759947 0.33945549676446662 -0.0009412003537054292 -0.0013678117088384498 -0.28060073009533132 0.00010728827219466663 0.0057205311634293803 0.34237208601314956 -0.0045743101548138265 0.0011434697790595194 -0.36811163695385496 0.0019931825876474268 0.90629693256096222 -0.20806289547626511 0.00086818654551434893 -0.52394446548659479 0.33955911662332183 -0.00088261000030187553 -0.88069941493017923 -0.4638980683654077 0.9379887210176503 -0.00031160425918852486 -0.45365229175514521 0.0011095651008004928 -0.0015811938284634383 0.23813884736020952 -0.012240295034370935 0.007133899448859532 0.23405881257501648 -0.0022655728769821332 0.64337080663333557 -0.33756252587684904 0.66499577135367194 -0.00097986346595660412 0.23585404296763604 0.12262832943938799 -0.00080504133908381251 0.23567288913186654 -0.23398132731329688 0.004675232534754192 0.2281012051007768 -0.0055992441908107732 0.0013987300429667004 0.23589601074297781 0.00060657111239408035 -0.0010936856780967077 0.23561964178809025 0.091887178297995378 0.0059161414276412763 0.23679916326072301 -0.0045867788654753577 </DataArray>
<DataArray Name="radii" format="ascii" type="Float32">1.2 1 1.2 1.2 1.2 1.2 1.2 1 1.2 1.2 1.2 1.2 1.2 1.2 1.2 1.2 1.2 1.2 1 1 1 1 1 1.2 1.2 1.2 1.2 1.2 1.2 1.2 1.2 1.2 1.2 1.2 1.2 1.2 1.2 1.2 1.2 1.2 1.2 1.2 1.2 1 1 1 1 1 1 1 1 1 1 </DataArray>
</PointData>
<CellData/>
</Piece>
</UnstructuredGrid>
</VTKFile>
