<?xml version="1.0" ?>
<VTKFile byte_order="LittleEndian" type="UnstructuredGrid" version="0.1">
<UnstructuredGrid>
<Piece NumberOfCells="0" NumberOfPoints="18">
<Points>
<DataArray NumberOfComponents="3" format="ascii" type="Float32">0.97335694327491029 1 1.5308931833572847 3.3061405629843357 1.3558873135397924 1.3814518597694445 0.97884018137720252 1 4.5539709388592753 2.7817265536271032 1 3.6657458227711026 5.2315772794154149 1 6.4279447679791133 7.1425434433827206 1 6.7505026081136563 3.9611567242736907 1 7.8815546831296599 8.6483748835383079 1.3629073620430445 8.6603953473299811 1.4196167045418979 2.804148385565532 0.99211204316392365 7.1077528877654172 1 2.1789442377788495 8.2000042059717995 2.58385004341672 1.9428915428973266 1.0 2.2262332427423455 3.048953950040429 5.155854247424533 1 2.8096805296557128 9.0 1 2.8274233757647744 4.5139809228010961 1 4.6083505901596569 9.0 1 6.4548922565579883 0.96280463604706146 1 7.3588025021208816 2.5300305215227068 1 9.0 </DataArray>
</Points>
<Cells>
<DataArray Name="connectivity" format="ascii" type="Int32">0</DataArray>
<DataArray Name="offsets" format="ascii" type="Int32">0</DataArray>
<DataArray Name="types" format="ascii" type="UInt8">1</DataArray>
</Cells>
<PointData>
<DataArray Name="Points" NumberOfComponents="3" format="ascii" type="Float32">0.97335694327491029 1 1.5308931833572847 3.3061405629843357 1.3558873135397924 1.3814518597694445 0.97884018137720252 1 4.5539709388592753 2.7817265536271032 1 3.6657458227711026 5.2315772794154149 1 6.4279447679791133 7.1425434433827206 1 6.7505026081136563 3.9611567242736907 1 7.8815546831296599 8.6483748835383079 1.3629073620430445 8.6603953473299811 1.4196167045418979 2.804148385565532 0.99211204316392365 7.1077528877654172 1 2.1789442377788495 8.2000042059717995 2.58385004341672 1.9428915428973266 1.0 2.2262332427423455 3.048953950040429 5.155854247424533 1 2.8096805296557128 9.0 1 2.8274233757647744 4.5139809228010961 1 4.6083505901596569 9.0 1 6.4548922565579883 0.96280463604706146 1 7.3588025021208816 2.5300305215227068 1 9.0 </DataArray>
<DataArray Name="forces" NumberOfComponents="3" format="ascii" type="Float32">-0.078110164096747856 -0.10729415145945467 -0.014033466606968102 0.0056783425224121165 0.015091023807178234 -0.05437808026486099 -0.062034807865258744 -0.049402678005526945 -0.0063498214000109118 -0.035053139420831915 -0.012426665163377478 -0.013460649526599354 0.0011539276515186749 0.0 -0.02202788896997452 -0.0006801643862080764 -0.025043809148861434 0.0082703309988241096 -0.017116748246780084 -0.058580413120137079 -0.029498462978812034 0.14182194371789617 0.035671888315858657 0.17706265986298911 0.0032571743604196922 0.078199824014429722 -0.023125334649525285 0.029739169456353742 -0.074689160225142603 0.0050607158555285321 0.019747033884553782 0.085096576937725182 -0.0042326862593731474 0.0 0.067201343592476176 -0.0060303100740981136 0.0060471651451515854 -0.03274397847343026 -0.0017414371228777203 0.015483990822712724 -0.014384585427203882 -0.0020311339000486112 -0.02395976157018179 -0.041568208831139333 -0.016305215301612774 0.15133405881489062 -0.032854908930854569 -0.0018473735446755402 -0.10904664626061239 -0.05817178622042217 0.028041995585216584 -0.014133114485335163 -0.089167258015012602 0.11570525329223164 </DataArray>
<DataArray Name="radii" format="ascii" type="Float32">1 1.4 1 1 1 1 1 1.4 1 1 1 1 1 1 1 1 1 1 </DataArray>
</PointData>
<CellData/>
</Piece>
</UnstructuredGrid>
</VTKFile>
