<?xml version="1.0" ?>
<VTKFile byte_order="LittleEndian" type="UnstructuredGrid" version="0.1">
<UnstructuredGrid>
<Piece NumberOfCells="0" NumberOfPoints="23">
<Points>
<DataArray NumberOfComponents="3" format="ascii" type="Float32">1.2919954736870836 1.3372161601953869 1.3548508267239388 3.2371307142125203 1.1362981370394287 1.1420778803533471 1.337927877528484 1.3195807658646281 4.8821617205874759 2.4421127408230694 1.329362151102867 3.1773181113804432 5.0516258448767939 1.3690216161569699 6.7804581783668905 6.8656980037716195 1.3650017572154511 7.0613092812179277 4.5534096895291016 1.3507456373843159 8.6792161400928762 8.8353632899014674 1.127821697741104 8.8740458445764077 2.7042787240824966 3.496945000849522 1.3902474133303151 6.7390115226631124 1.3479913101021437 3.3603190017691604 7.8853285735548342 3.6173754507401004 2.2601430388076507 1.3811791194845933 3.5528487854933881 3.7338406386039442 4.7231809713773325 1.3591057500724899 3.034952996898169 8.6888218552166361 1.3347158584702306 3.3689871516163041 4.0230211190303251 1.3383063077342012 4.8363880231927299 8.6832449841510027 1.3546798699686273 7.0980505628581563 1.2976033305421919 1.3416364130352103 6.9930115901331886 2.364767164990675 1.3101598490093087 8.6999999999999993 4.8704640551021514 1.1498972179165512 1.1295209493690326 6.3357284706704018 1.1214680875888134 5.0602433814357894 3.1740200204222759 1.1169382515440729 6.5878877769138713 8.8005566393152979 3.244178378417923 8.8047366915549592 6.7570094033120736 1.1198287299661358 8.8792864341176738 </DataArray>
</Points>
<Cells>
<DataArray Name="connectivity" format="ascii" type="Int32">0</DataArray>
<DataArray Name="offsets" format="ascii" type="Int32">0</DataArray>
<DataArray Name="types" format="ascii" type="UInt8">1</DataArray>
</Cells>
<PointData>
<DataArray Name="Points" NumberOfComponents="3" format="ascii" type="Float32">1.2919954736870836 1.3372161601953869 1.3548508267239388 3.2371307142125203 1.1362981370394287 1.1420778803533471 1.337927877528484 1.3195807658646281 4.8821617205874759 2.4421127408230694 1.329362151102867 3.1773181113804432 5.0516258448767939 1.3690216161569699 6.7804581783668905 6.8656980037716195 1.3650017572154511 7.0613092812179277 4.5534096895291016 1.3507456373843159 8.6792161400928762 8.8353632899014674 1.127821697741104 8.8740458445764077 2.7042787240824966 3.496945000849522 1.3902474133303151 6.7390115226631124 1.3479913101021437 3.3603190017691604 7.8853285735548342 3.6173754507401004 2.2601430388076507 1.3811791194845933 3.5528487854933881 3.7338406386039442 4.7231809713773325 1.3591057500724899 3.034952996898169 8.6888218552166361 1.3347158584702306 3.3689871516163041 4.0230211190303251 1.3383063077342012 4.8363880231927299 8.6832449841510027 1.3546798699686273 7.0980505628581563 1.2976033305421919 1.3416364130352103 6.9930115901331886 2.364767164990675 1.3101598490093087 8.6999999999999993 4.8704640551021514 1.1498972179165512 1.1295209493690326 6.3357284706704018 1.1214680875888134 5.0602433814357894 3.1740200204222759 1.1169382515440729 6.5878877769138713 8.8005566393152979 3.244178378417923 8.8047366915549592 6.7570094033120736 1.1198287299661358 8.8792864341176738 </DataArray>
<DataArray Name="forces" NumberOfComponents="3" format="ascii" type="Float32">-1.2644541433592695 -0.1583272234107197 -0.5285802472088964 0.05099846163724886 -0.32207944892335938 -0.67811847039787154 -0.72670428847412216 -0.36479215772927159 0.023341662204551 -0.10182681655509379 -0.25027739140873062 -0.011829553894542433 -0.039535902043099092 0.21403254654500176 -0.0096076101257985685 -0.018143285335674213 0.16697037732075382 0.021279640121129151 -0.013504074389839305 6.8022353900909494e-05 0.92741647022423523 0.41401281932549983 -0.42131666756220687 0.86688565905017656 0.18781610705468582 0.53286883139933927 -0.11417760943856514 -0.026310770404424449 -0.032178038649317869 0.028221998920874292 -0.041444666067327662 0.5736343641077013 0.068398242734721115 -0.220343916702402 0.62776144927847455 0.012348016370271442 -0.033828162791929066 0.097943356734659537 0.008709662842203314 1.0398745930715851 -0.18759930101664027 0.0075563042346201703 -0.052310926749323416 -0.14556441041218993 -0.021728873275394744 0.97458383196505827 0.046127728016226374 -0.00070791371676032049 -1.1988006186610241 -0.10657747542500284 0.025160895570044417 -0.03320681322998531 -0.47508676998875027 1.1707418073348403 0.078905482068246463 -0.16286932368161072 -0.82512771114942329 -0.029960961770478467 -0.49570103789014508 0.029660029658729659 -0.010729685460805743 -0.54873372226964423 0.0043124584196425619 0.0065168091802504944 0.41521049958579592 0.055454428318407432 -0.0054433366248968704 -0.51489368295056259 0.92823943176058499 </DataArray>
<DataArray Name="radii" format="ascii" type="Float32">1.4 1.2 1.4 1.4 1.4 1.4 1.4 1.2 1.4 1.4 1.4 1.4 1.4 1.4 1.4 1.4 1.4 1.4 1.2 1.2 1.2 1.2 1.2 </DataArray>
</PointData>
<CellData/>
</Piece>
</UnstructuredGrid>
</VTKFile>
