<?xml version="1.0" ?>
<VTKFile byte_order="LittleEndian" type="UnstructuredGrid" version="0.1">
<UnstructuredGrid>
<Piece NumberOfCells="0" NumberOfPoints="53">
<Points>
<DataArray NumberOfComponents="3" format="ascii" type="Float32">1.1683157347542015 1.116410772122568 1.0939051363631702 3.2654602846579928 1 0.91545609495614999 1.1496552445215162 1.1207865384086788 4.1966068363542544 3.161012296470274 1.1206086716014341 4.0222218670173584 6.6020441899338973 1.1075059627872841 5.7597693942574972 7.2516649115115897 1.1376232332816383 7.4057172406430976 4.327810926801301 1.1415652005912427 8.874208996992861 7.5536498557539238 1 9.0 3.2355173339229437 4.2042665809161184 1.1836395876372305 6.456722642973121 1.1294101498297495 2.5419997933925385 8.3597257628570478 4.6334197971070896 2.7273003539184977 1.1865785438003456 3.0994750336061214 4.4970637079755234 5.0506674806797092 3.0927345916536799 2.9235487894112158 8.8248549975799353 1.1524457619681623 2.7357308449046993 2.7946572522044599 1.1654555666471065 5.723112954856048 8.8043888677285569 3.1914538054555632 6.9558395956247958 1.1681075581257327 1.151096957854161 7.3347940117177028 2.7147565972801209 1.156352622573106 8.8740484847622394 5.209801448425802 1 0.93226933328660944 7.2063449775783521 1 4.1654605147438053 3.3556988883735275 1 7.2084182399043684 9.0 2.7489149993621251 9.0 6.0795082279984269 1 9.0 1.1247551221112146 1.1648345224046417 2.7604106213169732 7.1145469935559573 1.1280932111464919 1.1074427716711523 8.8067310315739942 3.1214721790792943 1.1846604292080749 1.1143096729636719 1.1492559996516298 5.8015416973605864 2.7855773266365276 2.8738085819221064 2.8527576417199882 8.8542867599439674 1.1330995968583808 5.8450174980024387 4.620875991782623 3.1357604644172419 6.732500626252933 7.0445486111965918 4.4014956342746032 5.9121884575847261 3.5291051764960923 3.3708560288764544 8.8271751668283027 5.3246386086719211 1.14356108316706 7.368360972027352 1.1850204417582932 3.0965686076135044 1.1759866320306958 5.3083859700019511 1.1319939696447892 4.0882630963527395 8.8577563253396097 3.4770392212484156 4.6498104846692945 1.1930838589490944 4.5481874035200986 2.846984087065521 4.4100061518965745 1.1296019660993493 2.4649976720110764 7.3061941749488009 2.7685134331144159 3.3034085480549336 4.6051319197671896 1.1302675431744533 5.6980601893060472 8.8972859003548432 1.1386559668096095 7.5069357825663241 1.1462123926022338 3.380600167898693 6.645225585822093 1.1053013606770308 1.1145011380782441 8.9000000000000004 2.7176740525632339 1 2.3312121981243181 6.2499173061088351 4.4397608197169811 3.9400495259401094 3.9800004759810346 2.8251037618949111 4.6442122271443695 9.0 1 9.0 5.4481203204675905 2.7020843417076743 9.0 4.3367945867067492 2.5482783157494158 0.97365351304075987 7.4973984816011896 2.5111501792989173 5.4177491489463847 2.7455217656317936 2.5569861089136126 7.2460613129941844 7.209579003225298 2.7210666876671787 9.0 6.6362834102945722 2.8608470875312682 7.1546792402556676 </DataArray>
</Points>
<Cells>
<DataArray Name="connectivity" format="ascii" type="Int32">0</DataArray>
<DataArray Name="offsets" format="ascii" type="Int32">0</DataArray>
<DataArray Name="types" format="ascii" type="UInt8">1</DataArray>
</Cells>
<PointData>
<DataArray Name="Points" NumberOfComponents="3" format="ascii" type="Float32">1.1683157347542015 1.116410772122568 1.0939051363631702 3.2654602846579928 1 0.91545609495614999 1.1496552445215162 1.1207865384086788 4.1966068363542544 3.161012296470274 1.1206086716014341 4.0222218670173584 6.6020441899338973 1.1075059627872841 5.7597693942574972 7.2516649115115897 1.1376232332816383 7.4057172406430976 4.327810926801301 1.1415652005912427 8.874208996992861 7.5536498557539238 1 9.0 3.2355173339229437 4.2042665809161184 1.1836395876372305 6.456722642973121 1.1294101498297495 2.5419997933925385 8.3597257628570478 4.6334197971070896 2.7273003539184977 1.1865785438003456 3.0994750336061214 4.4970637079755234 5.0506674806797092 3.0927345916536799 2.9235487894112158 8.8248549975799353 1.1524457619681623 2.7357308449046993 2.7946572522044599 1.1654555666471065 5.723112954856048 8.8043888677285569 3.1914538054555632 6.9558395956247958 1.1681075581257327 1.151096957854161 7.3347940117177028 2.7147565972801209 1.156352622573106 8.8740484847622394 5.209801448425802 1 0.93226933328660944 7.2063449775783521 1 4.1654605147438053 3.3556988883735275 1 7.2084182399043684 9.0 2.7489149993621251 9.0 6.0795082279984269 1 9.0 1.1247551221112146 1.1648345224046417 2.7604106213169732 7.1145469935559573 1.1280932111464919 1.1074427716711523 8.8067310315739942 3.1214721790792943 1.1846604292080749 1.1143096729636719 1.1492559996516298 5.8015416973605864 2.7855773266365276 2.8738085819221064 2.8527576417199882 8.8542867599439674 1.1330995968583808 5.8450174980024387 4.620875991782623 3.1357604644172419 6.732500626252933 7.0445486111965918 4.4014956342746032 5.9121884575847261 3.5291051764960923 3.3708560288764544 8.8271751668283027 5.3246386086719211 1.14356108316706 7.368360972027352 1.1850204417582932 3.0965686076135044 1.1759866320306958 5.3083859700019511 1.1319939696447892 4.0882630963527395 8.8577563253396097 3.4770392212484156 4.6498104846692945 1.1930838589490944 4.5481874035200986 2.846984087065521 4.4100061518965745 1.1296019660993493 2.4649976720110764 7.3061941749488009 2.7685134331144159 3.3034085480549336 4.6051319197671896 1.1302675431744533 5.6980601893060472 8.8972859003548432 1.1386559668096095 7.5069357825663241 1.1462123926022338 3.380600167898693 6.645225585822093 1.1053013606770308 1.1145011380782441 8.9000000000000004 2.7176740525632339 1 2.3312121981243181 6.2499173061088351 4.4397608197169811 3.9400495259401094 3.9800004759810346 2.8251037618949111 4.6442122271443695 9.0 1 9.0 5.4481203204675905 2.7020843417076743 9.0 4.3367945867067492 2.5482783157494158 0.97365351304075987 7.4973984816011896 2.5111501792989173 5.4177491489463847 2.7455217656317936 2.5569861089136126 7.2460613129941844 7.209579003225298 2.7210666876671787 9.0 6.6362834102945722 2.8608470875312682 7.1546792402556676 </DataArray>
<DataArray Name="forces" NumberOfComponents="3" format="ascii" type="Float32">-0.29618351405960569 -0.44307576444191288 -0.99177144528537842 -0.0001486426200637686 -0.13065592380317786 -0.79031376280785259 -0.47062118930045865 -0.40217123895364298 -2.8592263999205336e-05 -0.0001024226991100663 -0.4038339322683106 0.00014595441997700132 0.00040337097241413598 -0.52631764177422369 -0.0004741784672398601 0.00022315965382108116 -0.24478234532027252 -2.0552076421043175e-05 -1.6526551732953809e-06 -0.20793295900788233 0.69370336770231844 7.2753049328681818e-05 -0.32211436741456967 0.6894215498074483 -0.00025036392841563948 0.33885023346482734 -0.15293661972205108 0.00017501119209242799 -0.32155799087095577 0.00052557773311043277 0.024838920594584285 0.33742322715122564 0.0032958557181919854 -0.12546335003106385 0.3382800434146806 -0.00033500061991931229 0.00097976649358299736 0.33784139270629526 0.00036326485718633783 0.23234373491252108 -0.10622181378936954 -0.00063127786474415082 -3.3493507371161902e-05 0.015393430785373141 0.00017584523566614718 0.041026997359793857 0.33763253693983653 0.0008064407996641544 -0.2981295426288853 -0.11883039218510538 -2.6549764622777264e-05 -3.2751111172925167e-05 -0.069700603846945111 0.69220290442359023 -0.00015616127895100307 -0.27446554025758974 -0.63314414019533227 -0.00017878592015296802 -0.41794483403668203 -0.0015790099849045773 0.00023125045305359693 -0.50331364347677143 0.00014709551093901839 0.21886511142018855 0.23471599282159056 0.09730264635158492 4.211365488561436e-05 -0.27384491157113422 0.57588459326442054 -0.70338674970667436 0.0095879287580193512 -4.4604851397150869e-05 -0.00038847139005082632 -0.3338686922232601 -0.86522205660712193 0.06292147125286332 0.33664630162811937 -0.14339382485509655 -0.80103047950281736 -0.13603961150682739 -0.00012334309744244445 0.00040161297195896381 0.33829014419306197 -0.00040511968217493699 0.50747092294483731 -0.28706915619546386 -0.00058947822785881954 0.00015861489544508056 0.33848778922461242 0.0013073595584266601 0.00070795380359849058 0.3385508438995164 -1.929662078024863e-05 -0.00035474565687944326 0.33850211088840548 0.25403260400459671 0.00051349109771321733 -0.18927551152188385 -6.0932834528036606e-05 -0.14002843886927518 0.33823666458265517 -0.22447620780784985 -0.000231414464827117 -0.29740452458166655 0.00047896202296382386 0.53990431103728098 0.33566704664188296 0.0038230087968069981 -0.064651868815570779 0.33826935636395072 -0.0001927559532464429 0.00016566138772217825 -0.31976489842133993 1.6119622219951113e-05 0.0041067499741428044 0.34183552921345317 -0.0037668926378936277 -8.2846987472566525e-05 -0.31354310487641923 0.00040151315140124488 0.90942553384193392 -0.23512838481247117 -0.00024298061118510628 -0.50280486065686292 0.33836059116319306 -0.0001487765924901574 -0.88523989916602042 -0.46092696337071648 0.93479685188180506 8.9783532356169093e-05 -0.45971254976001868 0.00017644844934545934 -0.00015393733339724713 0.23463881627717725 0.00033612972072155634 -8.9174740320267787e-05 0.23488718207698034 -0.00051794574775523849 0.6431932724007583 -0.34061222896246213 0.66851681888878789 -0.00047604557662389579 0.23496963888239863 0.12449988363978795 -0.00061013869156642878 0.23506316142567535 -0.2462861306764273 -0.0013497539322874594 0.2347434546286542 -0.0020035974853173516 -0.00015955475142043207 0.23476445545690569 0.00036319124319229845 -0.00038805462075834976 0.23492153476891495 0.059715071045263413 0.00041543505852418769 0.23476476077450345 -0.00093223251552376069 </DataArray>
<DataArray Name="radii" format="ascii" type="Float32">1.2 1 1.2 1.2 1.2 1.2 1.2 1 1.2 1.2 1.2 1.2 1.2 1.2 1.2 1.2 1.2 1.2 1 1 1 1 1 1.2 1.2 1.2 1.2 1.2 1.2 1.2 1.2 1.2 1.2 1.2 1.2 1.2 1.2 1.2 1.2 1.2 1.2 1.2 1.2 1 1 1 1 1 1 1 1 1 1 </DataArray>
</PointData>
<CellData/>
</Piece>
</UnstructuredGrid>
</VTKFile>
