<?xml version="1.0" ?>
<VTKFile byte_order="LittleEndian" type="UnstructuredGrid" version="0.1">
<UnstructuredGrid>
<Piece NumberOfCells="0" NumberOfPoints="8">
<Points>
<DataArray NumberOfComponents="3" format="ascii" type="Float32">1.1676075566669477 1.1676948471948041 1.1388479918902148 3.2792083913812511 1 0.9019797491623921 1.1706784782972917 1.1688330524348727 3.5719040200217176 3.6168043648985058 1.1726130033954998 3.1153727120736163 5.0070833057534037 1.1645218939416813 5.0660461256296117 7.1060731127708365 1.1693281509114681 6.0471425654967401 3.9128997903724176 1.1638088526306456 7.1726981649119015 9.0 1 7.1225856611055409 </DataArray>
</Points>
<Cells>
<DataArray Name="connectivity" format="ascii" type="Int32">0</DataArray>
<DataArray Name="offsets" format="ascii" type="Int32">0</DataArray>
<DataArray Name="types" format="ascii" type="UInt8">1</DataArray>
</Cells>
<PointData>
<DataArray Name="Points" NumberOfComponents="3" format="ascii" type="Float32">1.1676075566669477 1.1676948471948041 1.1388479918902148 3.2792083913812511 1 0.9019797491623921 1.1706784782972917 1.1688330524348727 3.5719040200217176 3.6168043648985058 1.1726130033954998 3.1153727120736163 5.0070833057534037 1.1645218939416813 5.0660461256296117 7.1060731127708365 1.1693281509114681 6.0471425654967401 3.9128997903724176 1.1638088526306456 7.1726981649119015 9.0 1 7.1225856611055409 </DataArray>
<DataArray Name="forces" NumberOfComponents="3" format="ascii" type="Float32">-0.02412510703917033 0.0028941946073668518 -0.045544534141499282 -0.045622924272464324 -0.015113981931070448 -0.073003108136974137 -0.021837959006550181 0.003741902295449222 0.016611493851565393 -0.028168700271678594 0.006557118195970487 0.0058689619558699585 0.013507007104173255 0.00053105589396943852 0.031489554480836332 -0.010686721137962343 0.0041106396463179602 -0.0077487436465603476 -0.0042952028165647626 0.0 0.008577779778515501 0.038631338741336903 -0.0041106396463179602 0.021302093941072884 </DataArray>
<DataArray Name="radii" format="ascii" type="Float32">1.2 1 1.2 1.2 1.2 1.2 1.2 1 </DataArray>
</PointData>
<CellData/>
</Piece>
</UnstructuredGrid>
</VTKFile>
