<?xml version="1.0" ?>
<VTKFile byte_order="LittleEndian" type="UnstructuredGrid" version="0.1">
<UnstructuredGrid>
<Piece NumberOfCells="0" NumberOfPoints="43">
<Points>
<DataArray NumberOfComponents="3" format="ascii" type="Float32">0.95347394802022745 1 0.93310282454895932 2.9398499818928587 1.3386422701799336 1.3514713583095312 0.95074996857811167 1 4.3297219478218105 2.4215807330250381 1 3.2720342415788295 5.7596656711915148 1 6.4462286466158663 7.2958500065005083 1 7.0069165902056358 4.1983322506585559 1 9.0 8.6822361302418614 1.3252870925501732 8.6779195243495 3.0808132105055459 3.5434750118604694 0.99517411899829833 6.6931674162665278 1 2.6730282258602398 7.8406999139402069 3.8350787072078094 2.1289878523011465 0.95789896849995282 3.3203492463680417 4.7453832583904285 4.9976480648463566 2.3210302370732121 2.7806214767701318 9.0 1 2.8767144395159496 2.7739399523101382 1.1171407019960644 4.9100215941201126 8.6782537368774122 2.6903597843731597 6.5494664428781846 0.96049737778596678 1 7.5170421838721353 2.4798712925134287 1 9.0 5.1451842137184238 1.3081679641544068 1.3042768684014538 6.8404334681084116 1.3801119211498261 4.7765933953312318 3.002736510777734 1.3556706716572904 7.0586666987077118 8.5962894209528198 3.8217550369706945 8.6065818176401976 6.3780454624198786 1.3281768305524799 8.6999999999999993 0.93771289281852366 1 2.5657639507014851 7.2061642977077796 1 0.96278719157882464 9.0 2.7155702559851376 0.9959047162476562 1.2070155498784532 1 5.8761338137856942 1.7177067365434882 2.4928482387761925 3.4234229142210624 8.2608898808070972 1 5.616198588359647 4.9118441694086803 2.5566715358060192 6.3705757233850138 6.7596014863415945 2.7693342348169327 6.7329319255834079 2.8964421208751263 2.7552426213186099 9.0 4.7626336893735672 1 7.5573649145789723 1.1602749217467809 2.7479990829381955 1.6164590817895501 5.3909286729626062 1 3.8653235064130214 8.8142740268512529 3.1824858778970286 3.8438748027030347 0.99557209667868363 4.1772126694316398 2.8932332987338043 3.9380537519547079 1 3.4142768195169424 7.7655085247453695 2.1305236013401441 2.7406684161047519 4.4336288009652156 1 5.3244917360043251 9.0 1 6.7513615746638926 0.99465376676450967 2.6536793172456985 6.6391902128791482 0.94282222452611752 1.3299809013303525 9.0 </DataArray>
</Points>
<Cells>
<DataArray Name="connectivity" format="ascii" type="Int32">0</DataArray>
<DataArray Name="offsets" format="ascii" type="Int32">0</DataArray>
<DataArray Name="types" format="ascii" type="UInt8">1</DataArray>
</Cells>
<PointData>
<DataArray Name="Points" NumberOfComponents="3" format="ascii" type="Float32">0.95347394802022745 1 0.93310282454895932 2.9398499818928587 1.3386422701799336 1.3514713583095312 0.95074996857811167 1 4.3297219478218105 2.4215807330250381 1 3.2720342415788295 5.7596656711915148 1 6.4462286466158663 7.2958500065005083 1 7.0069165902056358 4.1983322506585559 1 9.0 8.6822361302418614 1.3252870925501732 8.6779195243495 3.0808132105055459 3.5434750118604694 0.99517411899829833 6.6931674162665278 1 2.6730282258602398 7.8406999139402069 3.8350787072078094 2.1289878523011465 0.95789896849995282 3.3203492463680417 4.7453832583904285 4.9976480648463566 2.3210302370732121 2.7806214767701318 9.0 1 2.8767144395159496 2.7739399523101382 1.1171407019960644 4.9100215941201126 8.6782537368774122 2.6903597843731597 6.5494664428781846 0.96049737778596678 1 7.5170421838721353 2.4798712925134287 1 9.0 5.1451842137184238 1.3081679641544068 1.3042768684014538 6.8404334681084116 1.3801119211498261 4.7765933953312318 3.002736510777734 1.3556706716572904 7.0586666987077118 8.5962894209528198 3.8217550369706945 8.6065818176401976 6.3780454624198786 1.3281768305524799 8.6999999999999993 0.93771289281852366 1 2.5657639507014851 7.2061642977077796 1 0.96278719157882464 9.0 2.7155702559851376 0.9959047162476562 1.2070155498784532 1 5.8761338137856942 1.7177067365434882 2.4928482387761925 3.4234229142210624 8.2608898808070972 1 5.616198588359647 4.9118441694086803 2.5566715358060192 6.3705757233850138 6.7596014863415945 2.7693342348169327 6.7329319255834079 2.8964421208751263 2.7552426213186099 9.0 4.7626336893735672 1 7.5573649145789723 1.1602749217467809 2.7479990829381955 1.6164590817895501 5.3909286729626062 1 3.8653235064130214 8.8142740268512529 3.1824858778970286 3.8438748027030347 0.99557209667868363 4.1772126694316398 2.8932332987338043 3.9380537519547079 1 3.4142768195169424 7.7655085247453695 2.1305236013401441 2.7406684161047519 4.4336288009652156 1 5.3244917360043251 9.0 1 6.7513615746638926 0.99465376676450967 2.6536793172456985 6.6391902128791482 0.94282222452611752 1.3299809013303525 9.0 </DataArray>
<DataArray Name="forces" NumberOfComponents="3" format="ascii" type="Float32">-0.38121797474851754 -0.19071667895442643 -0.54813173816960192 -0.016108065911973349 -0.099123093131561965 -0.39762648484723989 -0.40353729654765619 -0.11014043895059296 -0.054154012722973953 -0.0032536843033891816 -0.41890124912486593 0.02288664655241076 0.10016717910317069 -0.27773882472476458 -0.055487588622028128 0.030070987091188772 -0.24456832849332708 -0.016446397393793645 -0.007665270870044566 -0.040279508276700363 0.53598520462656507 0.67381369550950088 -0.20855068373472371 0.6384449572209262 0.013576627201051315 0.21181978036620952 -0.03954155797800981 0.013357075355881598 -0.41207303193903544 -0.020092672779984042 0.05983910219753083 0.2971853313408227 0.05187907635946637 -0.34496092576798065 0.14188523047124094 0.13451993233570367 -0.064762619458853893 0.44901705569525757 -0.031246471086515626 0.24414425376204843 -0.31056710431851786 -0.121642815075779 -0.043344132372100663 0.022918404428155372 0.05007809086224857 0.02899215426115713 0.25850741059970633 -0.073261508277304765 -0.32367048130876352 -0.27740293840056224 0.007458994832338528 -0.0026728059325679121 -0.34286684188997529 0.33843568468814661 0.043787212909657633 -0.34881875245740657 -0.78432140299478692 0.030426073800542273 0.24066452441963992 -0.058839954541496875 -0.082978555630256731 0.040401591387659801 -0.005159271735209206 -0.002594406909540947 0.40892847304343671 0.053929080250588929 -0.0434026600270076 -0.1848731950608043 0.819364546371255 -0.51035847320528138 -0.13888916527371933 0.010392397069745495 0.15146570842660459 -0.42592050755751132 -0.30490855891216734 0.044069674864667729 0.27123356773458779 -0.033555303140007167 -0.18792541607564084 -0.20424836649606423 -0.0081479156289310795 0.1333567058077387 0.29122311046012156 -0.070125751203158337 0.10775475298848641 -0.36065699459756806 0.00083345022023451065 -0.036640620289059157 0.17499374592014288 0.07458748121161346 0.0023291997307920143 0.17632155824772716 -0.024036692150538157 -0.016797479299332101 0.18829891695972736 0.035797285859797801 -0.038074829314048729 -0.21896855454549641 -0.12128054682961387 -0.13885836418462802 0.18447900255844504 -0.091300567406427932 -0.056839026858715058 -0.34571452290138549 -0.090351689799710588 0.075235662639431641 0.20403531363891397 0.050483038450451073 -0.036280669962461647 0.13015475846794519 0.030411300244957119 0.0034683841837914505 -0.18209949430032049 -0.019340911077495165 0.0067151572390907605 0.28083554023818669 -0.04335841515626461 -0.0032081093410171787 -0.096247647253568006 0.017893428156947111 0.77359154814865716 -0.36271263655751596 0.088105273202138068 -0.043805139697924302 0.2490122519091208 -0.025464683881039313 -0.46849442063675212 0.10634796752907387 0.49337663757036909 </DataArray>
<DataArray Name="radii" format="ascii" type="Float32">1 1.4 1 1 1 1 1 1.4 1 1 1 1 1 1 1 1 1 1 1.4 1.4 1.4 1.4 1.4 1 1 1 1 1 1 1 1 1 1 1 1 1 1 1 1 1 1 1 1 </DataArray>
</PointData>
<CellData/>
</Piece>
</UnstructuredGrid>
</VTKFile>
