<?xml version="1.0" ?>
<VTKFile byte_order="LittleEndian" type="UnstructuredGrid" version="0.1">
<UnstructuredGrid>
<Piece NumberOfCells="0" NumberOfPoints="53">
<Points>
<DataArray NumberOfComponents="3" format="ascii" type="Float32">1.1685455441698267 1.1171033298234743 1.0938445584568575 3.2728715825273471 1 0.91487611175628059 1.1495236223818512 1.1216344069480331 4.1972255105308589 3.1652205520491066 1.1186563700165206 4.0062311290301116 6.5984695012487586 1.1099716354396512 5.7664465520673005 7.2488442828094568 1.1374453459801697 7.4022931397343932 4.3308864456255893 1.1418203840611283 8.874485516227276 7.5535588464961059 1 9.0 3.2421045063206155 4.1951521210635363 1.1837530667590879 6.4643378163461751 1.1254309087727816 2.5320236351533403 7.9945723938075597 4.5921981931607574 2.6713289588832745 1.1883862278507353 3.1025762002507844 4.5143646644228284 5.0264143085411161 3.1197036799655971 2.9375192483385772 8.82292221622067 1.1550512282329211 2.7492045943722636 2.792728095233183 1.1656453856101874 5.7113961624684393 8.8071289318965889 3.2121113743097531 6.9405254426405012 1.1670035898639211 1.150653094748165 7.3368941739878668 2.7176258049164113 1.1565227826200197 8.8733651101851798 5.2161688010074352 1 0.93187762071164737 7.2137584176992897 1 4.1963171929301861 3.3436341858901093 1 7.205102534563169 9.0 2.7518848176784663 9.0 6.0808380658881385 1 9.0 1.1243630323551952 1.1638936812716003 2.7608707799029371 7.1230257102198928 1.1278336816214631 1.1070715967471914 8.8101425293574849 3.1420786375635101 1.1870597629531803 1.1144633853722348 1.1490874716039194 5.8088529785354224 2.7701285085739733 2.8741046723659047 2.855042969570377 8.8523898765640929 1.1349141884366469 5.8496245811579017 4.5852148627115454 3.1231701426008738 6.7264109965166705 6.9377509630495435 4.4131061261250517 6.0437950170814396 3.5298178156368691 3.3646037788699168 8.8272128685760887 5.3039246585029902 1.139540744815277 7.3652627153666401 1.1843618086532375 3.1014820346200884 1.1757000282824559 5.315289859254583 1.1349418087118763 4.0790438164299747 8.8498022754267023 3.5037938710067569 4.585660757119558 1.1923907745012625 4.5491062473036683 2.8575537634198325 4.4166733471620638 1.1324196417223729 2.4642533263469466 7.2270174376314822 2.7079067961645955 3.3772685777105789 4.5960524171489325 1.1258869472631023 5.6902770756380638 8.8967596656723185 1.1413799721674416 7.5074917297425499 1.1450057729324488 3.3821037189670795 6.6513048593990112 1.1058264464937735 1.1143950617793787 8.9000000000000004 2.7192330397513169 1 2.318402092914766 6.2634435593903541 4.4232355874941067 4.0201352256590193 3.9368701953148868 2.818632775829224 4.6600389766233334 9.0 1 9.0 5.4608303130921545 2.7027713896996786 9.0 4.349231745468118 2.5472933454167639 0.97428399645607899 7.4954320963519852 2.5524478206868313 5.470251288628897 2.7310991302685479 2.5594476848549887 7.2335157499778049 7.2229605262898948 2.7218898530442472 9.0 6.5777270877687224 2.8417994224919618 7.2061942308713407 </DataArray>
</Points>
<Cells>
<DataArray Name="connectivity" format="ascii" type="Int32">0</DataArray>
<DataArray Name="offsets" format="ascii" type="Int32">0</DataArray>
<DataArray Name="types" format="ascii" type="UInt8">1</DataArray>
</Cells>
<PointData>
<DataArray Name="Points" NumberOfComponents="3" format="ascii" type="Float32">1.1685455441698267 1.1171033298234743 1.0938445584568575 3.2728715825273471 1 0.91487611175628059 1.1495236223818512 1.1216344069480331 4.1972255105308589 3.1652205520491066 1.1186563700165206 4.0062311290301116 6.5984695012487586 1.1099716354396512 5.7664465520673005 7.2488442828094568 1.1374453459801697 7.4022931397343932 4.3308864456255893 1.1418203840611283 8.874485516227276 7.5535588464961059 1 9.0 3.2421045063206155 4.1951521210635363 1.1837530667590879 6.4643378163461751 1.1254309087727816 2.5320236351533403 7.9945723938075597 4.5921981931607574 2.6713289588832745 1.1883862278507353 3.1025762002507844 4.5143646644228284 5.0264143085411161 3.1197036799655971 2.9375192483385772 8.82292221622067 1.1550512282329211 2.7492045943722636 2.792728095233183 1.1656453856101874 5.7113961624684393 8.8071289318965889 3.2121113743097531 6.9405254426405012 1.1670035898639211 1.150653094748165 7.3368941739878668 2.7176258049164113 1.1565227826200197 8.8733651101851798 5.2161688010074352 1 0.93187762071164737 7.2137584176992897 1 4.1963171929301861 3.3436341858901093 1 7.205102534563169 9.0 2.7518848176784663 9.0 6.0808380658881385 1 9.0 1.1243630323551952 1.1638936812716003 2.7608707799029371 7.1230257102198928 1.1278336816214631 1.1070715967471914 8.8101425293574849 3.1420786375635101 1.1870597629531803 1.1144633853722348 1.1490874716039194 5.8088529785354224 2.7701285085739733 2.8741046723659047 2.855042969570377 8.8523898765640929 1.1349141884366469 5.8496245811579017 4.5852148627115454 3.1231701426008738 6.7264109965166705 6.9377509630495435 4.4131061261250517 6.0437950170814396 3.5298178156368691 3.3646037788699168 8.8272128685760887 5.3039246585029902 1.139540744815277 7.3652627153666401 1.1843618086532375 3.1014820346200884 1.1757000282824559 5.315289859254583 1.1349418087118763 4.0790438164299747 8.8498022754267023 3.5037938710067569 4.585660757119558 1.1923907745012625 4.5491062473036683 2.8575537634198325 4.4166733471620638 1.1324196417223729 2.4642533263469466 7.2270174376314822 2.7079067961645955 3.3772685777105789 4.5960524171489325 1.1258869472631023 5.6902770756380638 8.8967596656723185 1.1413799721674416 7.5074917297425499 1.1450057729324488 3.3821037189670795 6.6513048593990112 1.1058264464937735 1.1143950617793787 8.9000000000000004 2.7192330397513169 1 2.318402092914766 6.2634435593903541 4.4232355874941067 4.0201352256590193 3.9368701953148868 2.818632775829224 4.6600389766233334 9.0 1 9.0 5.4608303130921545 2.7027713896996786 9.0 4.349231745468118 2.5472933454167639 0.97428399645607899 7.4954320963519852 2.5524478206868313 5.470251288628897 2.7310991302685479 2.5594476848549887 7.2335157499778049 7.2229605262898948 2.7218898530442472 9.0 6.5777270877687224 2.8417994224919618 7.2061942308713407 </DataArray>
<DataArray Name="forces" NumberOfComponents="3" format="ascii" type="Float32">-0.29470359006685221 -0.43759413043219592 -0.99459325879946625 -0.00055957214393390076 -0.12865119530410363 -0.79754409363550594 -0.47292408356875276 -0.39514149025025141 1.8623136323725475e-05 -0.0014384958319959701 -0.42304336144480792 0.0017608733399309962 -0.00019123078059541098 -0.5044125153859792 -3.5256215264165003e-05 -0.00013026524183029631 -0.24700538768162675 0.00064747752820897009 -0.00050021390109530883 -0.20601471099979177 0.69787088858499557 -0.00026226871127528473 -0.32387034646483209 0.68580848186686572 -0.00038076121696170584 0.33952412381553843 -0.15222102647473731 -0.0020749112310200213 -0.3595712447025432 0.0011271842402060528 0.01182212083454165 0.34378270364793473 0.0022194516184301655 -0.1088119395574953 0.33860929298345066 -0.0017092320759687363 0.0024037305098624957 0.33615408496083871 -0.0022901154684328087 0.21476319441011868 -0.082052074415182238 0.00040426947019065601 0.00049477122817542796 0.017206874131580646 0.0010302588105600696 0.066792502614242993 0.33849201346094082 0.00034524920410834714 -0.30915049298333747 -0.12325913692324005 -0.00025693733999678815 -0.00039194332129722891 -0.068264763542660631 0.68737356239628078 -0.00037474030537686109 -0.27961797191650911 -0.63825328432212403 -0.0016409609160119264 -0.47395028123226718 -0.0019536056473618002 0.00053343835501143411 -0.49918897372974913 0.00050682335061580375 0.2304412715085116 0.23578728403879479 0.079142036914017361 -0.00028792847619604767 -0.27549909007042556 0.56373752214821782 -0.70865908560121083 0.00079477785801791712 -0.00017453413730533773 -0.00015276562466332022 -0.3370591469430172 -0.87066628034022275 0.095027548088798347 0.33911414153791986 -0.12123987566669669 -0.80141101626644606 -0.13792779829802274 -0.00058562115277452365 0.0016040030401149458 0.3391744727430725 0.00025090343345848115 0.49085206846231394 -0.27072034937507972 0.0024597561254228115 0.0036128508478264487 0.34027819261589692 -0.00022127930225108311 0.0041580538883376136 0.33301389911357915 -0.01496584080961276 7.4817508321681214e-05 0.33949551709168924 0.25496324300411544 0.0014168531356485992 -0.22737314344055465 0.00097128037894933517 -0.14651759219507257 0.33868108166216265 -0.22767168322186082 -0.0027958739896365992 -0.27046156905115004 0.0018763961963439435 0.4666082745474826 0.3418363303263286 0.0034350402800252533 -0.07129247710446808 0.33900587048868375 -0.00087008902251176079 -0.0011604094049953335 -0.29409229630225631 0.0001744295311162658 0.0055375064678749135 0.34157435327064489 -0.004629368268032466 0.001083687128653768 -0.35529852159355629 0.0018433093241755349 0.90656220540768007 -0.21014102514995284 0.0010723736511739634 -0.51525279080530528 0.33918801828077316 -0.00079434806983050277 -0.88233236198652709 -0.46296847865705648 0.93692159755678217 -0.00024373134745281355 -0.45486053271955201 0.0010179370445300082 -0.00051681366008103635 0.23713498489925552 -0.011188604082329322 0.0072125264256266836 0.23375916924002285 -0.0022275727389352989 0.64321584652232866 -0.33777761873621526 0.66891146759469189 -0.00095555321461435194 0.23545036107537703 0.12303519290782679 -0.00067443274846955368 0.23539755454964248 -0.24093879123146378 0.0049420651413953657 0.22766764478958468 -0.0064006007532224976 0.0014861011713723782 0.2355760467902164 0.00060873604519007252 -0.0010595271010305045 0.2354180419708235 0.0846341573685961 0.0061392735718915036 0.23638582592047563 -0.0047768845369926954 </DataArray>
<DataArray Name="radii" format="ascii" type="Float32">1.2 1 1.2 1.2 1.2 1.2 1.2 1 1.2 1.2 1.2 1.2 1.2 1.2 1.2 1.2 1.2 1.2 1 1 1 1 1 1.2 1.2 1.2 1.2 1.2 1.2 1.2 1.2 1.2 1.2 1.2 1.2 1.2 1.2 1.2 1.2 1.2 1.2 1.2 1.2 1 1 1 1 1 1 1 1 1 1 </DataArray>
</PointData>
<CellData/>
</Piece>
</UnstructuredGrid>
</VTKFile>
