<?xml version="1.0" ?>
<VTKFile byte_order="LittleEndian" type="UnstructuredGrid" version="0.1">
<UnstructuredGrid>
<Piece NumberOfCells="0" NumberOfPoints="8">
<Points>
<DataArray NumberOfComponents="3" format="ascii" type="Float32">1.3358734924501174 1.3582202865503472 1.3796162069229529 3.716935811610067 1.1496937054141465 1.128519893803529 1.3335856429041657 1.3551680920552467 4.0956204513784238 3.9460094564154824 1.3606388416097224 3.5527363495039603 5.0100664914151789 1.3563978184041816 5.9932406530377165 7.602249338608277 1.3546342988079949 6.5349822991493411 4.0517021488115095 1.3536754411573444 8.523307748288822 8.8416904309041247 1.1614254648863853 8.6885064964956253 </DataArray>
</Points>
<Cells>
<DataArray Name="connectivity" format="ascii" type="Int32">0</DataArray>
<DataArray Name="offsets" format="ascii" type="Int32">0</DataArray>
<DataArray Name="types" format="ascii" type="UInt8">1</DataArray>
</Cells>
<PointData>
<DataArray Name="Points" NumberOfComponents="3" format="ascii" type="Float32">1.3358734924501174 1.3582202865503472 1.3796162069229529 3.716935811610067 1.1496937054141465 1.128519893803529 1.3335856429041657 1.3551680920552467 4.0956204513784238 3.9460094564154824 1.3606388416097224 3.5527363495039603 5.0100664914151789 1.3563978184041816 5.9932406530377165 7.602249338608277 1.3546342988079949 6.5349822991493411 4.0517021488115095 1.3536754411573444 8.523307748288822 8.8416904309041247 1.1614254648863853 8.6885064964956253 </DataArray>
<DataArray Name="forces" NumberOfComponents="3" format="ascii" type="Float32">-0.25045807844223461 0.029216334218289512 -0.079612719302856835 0.010993352421316199 -0.055129349528720617 -0.27917893440382441 -0.25939370308385878 0.017295417307599804 0.024848397552323376 -0.00090213836954726456 0.038662453708059576 0.039354498279321859 0.015067158106214083 0.022098343743667325 0.069425121588312141 0.062847948277828747 0.01521058786498386 0.040651469682871283 -0.0062708925537860727 0.011465589831296181 0.081502469220629536 0.16282978151512606 -0.0093087669579671999 0.11055280813420607 </DataArray>
<DataArray Name="radii" format="ascii" type="Float32">1.4 1.2 1.4 1.4 1.4 1.4 1.4 1.2 </DataArray>
</PointData>
<CellData/>
</Piece>
</UnstructuredGrid>
</VTKFile>
