<?xml version="1.0" ?>
<VTKFile byte_order="LittleEndian" type="UnstructuredGrid" version="0.1">
<UnstructuredGrid>
<Piece NumberOfCells="0" NumberOfPoints="53">
<Points>
<DataArray NumberOfComponents="3" format="ascii" type="Float32">1.1698610103813916 1.1183251506071572 1.0943855317458786 3.2934301605302636 1 0.91478485862891146 1.1515000189033187 1.1244678915843644 4.1931545048454595 3.1998389189414276 1.1184461186216681 3.9655088683014874 6.5805901373227922 1.1175657549021469 5.7890077393490849 7.252007344084789 1.1384864495639027 7.3970483451346016 4.3284697361845872 1.1413540710925087 8.8738156285649286 7.5541519057772577 1 9.0 3.2629115384571259 4.159399631008398 1.1836787992000333 6.5146498641469837 1.1190965094606866 2.5270287498599759 7.8312672555210687 4.5257089869659168 2.5914968292854494 1.194277849839571 3.1169038791986607 4.5584096420455911 4.9925812184704421 3.1754151804333084 2.9833176328194604 8.8242886103166853 1.1574252168294734 2.7449486715118949 2.7734009552237673 1.1655324876373212 5.6869794096957254 8.8112308809618689 3.2071144233443833 6.9316423854488214 1.1654349076833903 1.1493230347774746 7.3432086501751499 2.721741808486712 1.1564807448948518 8.8718195641983311 5.2364788413136472 1 0.93243689126622697 7.2517977029218095 1 4.2661837490597501 3.3275590020437926 1 7.1894331248711412 9.0 2.7522447412229849 9.0 6.0814449192600053 1 9.0 1.1259231380264012 1.1616803943643432 2.7629841183215644 7.1255941886159375 1.1283169564550268 1.1040358961503696 8.8125705369088774 3.1288523113634485 1.1863523267257279 1.1134419259057249 1.1482150893093912 5.8214598427496309 2.7383765062083407 2.8718860836163733 2.8610772297175431 8.8404474454229618 1.1443519796193224 5.8148139167734163 4.5372598878128203 3.0932481317138718 6.7233275423306296 6.8702581775621416 4.479576216686934 6.3592429592498529 3.531384834496651 3.3593632351937943 8.8274052421812073 5.2670074683836221 1.1316190607815297 7.3547789685487146 1.183144651752045 3.1098987516552992 1.175139358698911 5.3730032582881888 1.1336460777608115 4.0495226868022174 8.8465024419266207 3.4677092930443041 4.4849357276181534 1.1910008336346316 4.5473986331896565 2.8785019806003 4.454305526641595 1.1370832397151269 2.460476560116112 7.1542096769674144 2.6595919074976897 3.4160441081130317 4.5643143907052259 1.1224694526061767 5.6464655115168361 8.8961619921285813 1.1412679386224776 7.4958734600735362 1.1428050294455732 3.3766883825360789 6.6669832290760818 1.1068996484427462 1.1142201736689676 8.9000000000000004 2.7293257795804662 1 2.2911229018678831 6.4338410867645415 4.3568722705786387 4.2599159656250345 3.794958847058576 2.8703940103900227 4.7075657868488854 9.0 1 9.0 5.4733800563547064 2.6870195929000533 9.0 4.3794662254699945 2.5396757909100547 0.97715725551780586 7.4214826189617193 2.6712421604193626 5.5306926383566992 2.7140971765613133 2.5583613253469877 7.2216875459132304 7.2390497185140381 2.7260864006627661 9.0 6.4839574247286986 2.8095182883131731 7.2832178993378189 </DataArray>
</Points>
<Cells>
<DataArray Name="connectivity" format="ascii" type="Int32">0</DataArray>
<DataArray Name="offsets" format="ascii" type="Int32">0</DataArray>
<DataArray Name="types" format="ascii" type="UInt8">1</DataArray>
</Cells>
<PointData>
<DataArray Name="Points" NumberOfComponents="3" format="ascii" type="Float32">1.1698610103813916 1.1183251506071572 1.0943855317458786 3.2934301605302636 1 0.91478485862891146 1.1515000189033187 1.1244678915843644 4.1931545048454595 3.1998389189414276 1.1184461186216681 3.9655088683014874 6.5805901373227922 1.1175657549021469 5.7890077393490849 7.252007344084789 1.1384864495639027 7.3970483451346016 4.3284697361845872 1.1413540710925087 8.8738156285649286 7.5541519057772577 1 9.0 3.2629115384571259 4.159399631008398 1.1836787992000333 6.5146498641469837 1.1190965094606866 2.5270287498599759 7.8312672555210687 4.5257089869659168 2.5914968292854494 1.194277849839571 3.1169038791986607 4.5584096420455911 4.9925812184704421 3.1754151804333084 2.9833176328194604 8.8242886103166853 1.1574252168294734 2.7449486715118949 2.7734009552237673 1.1655324876373212 5.6869794096957254 8.8112308809618689 3.2071144233443833 6.9316423854488214 1.1654349076833903 1.1493230347774746 7.3432086501751499 2.721741808486712 1.1564807448948518 8.8718195641983311 5.2364788413136472 1 0.93243689126622697 7.2517977029218095 1 4.2661837490597501 3.3275590020437926 1 7.1894331248711412 9.0 2.7522447412229849 9.0 6.0814449192600053 1 9.0 1.1259231380264012 1.1616803943643432 2.7629841183215644 7.1255941886159375 1.1283169564550268 1.1040358961503696 8.8125705369088774 3.1288523113634485 1.1863523267257279 1.1134419259057249 1.1482150893093912 5.8214598427496309 2.7383765062083407 2.8718860836163733 2.8610772297175431 8.8404474454229618 1.1443519796193224 5.8148139167734163 4.5372598878128203 3.0932481317138718 6.7233275423306296 6.8702581775621416 4.479576216686934 6.3592429592498529 3.531384834496651 3.3593632351937943 8.8274052421812073 5.2670074683836221 1.1316190607815297 7.3547789685487146 1.183144651752045 3.1098987516552992 1.175139358698911 5.3730032582881888 1.1336460777608115 4.0495226868022174 8.8465024419266207 3.4677092930443041 4.4849357276181534 1.1910008336346316 4.5473986331896565 2.8785019806003 4.454305526641595 1.1370832397151269 2.460476560116112 7.1542096769674144 2.6595919074976897 3.4160441081130317 4.5643143907052259 1.1224694526061767 5.6464655115168361 8.8961619921285813 1.1412679386224776 7.4958734600735362 1.1428050294455732 3.3766883825360789 6.6669832290760818 1.1068996484427462 1.1142201736689676 8.9000000000000004 2.7293257795804662 1 2.2911229018678831 6.4338410867645415 4.3568722705786387 4.2599159656250345 3.794958847058576 2.8703940103900227 4.7075657868488854 9.0 1 9.0 5.4733800563547064 2.6870195929000533 9.0 4.3794662254699945 2.5396757909100547 0.97715725551780586 7.4214826189617193 2.6712421604193626 5.5306926383566992 2.7140971765613133 2.5583613253469877 7.2216875459132304 7.2390497185140381 2.7260864006627661 9.0 6.4839574247286986 2.8095182883131731 7.2832178993378189 </DataArray>
<DataArray Name="forces" NumberOfComponents="3" format="ascii" type="Float32">-0.28430855425202856 -0.42905902712624244 -0.99628743887574078 -0.0035158150823806772 -0.12699125211862497 -0.80385553564270329 -0.45751233473117359 -0.37111302998185924 -0.00018701954853195257 -0.0032031213029734412 -0.42791790588257761 0.0046636615781478763 0.0052019411157569577 -0.4362225949076704 -0.0050117325141475124 0.00044189021083843039 -0.23887250027943147 1.6956523460683048e-05 0.0017003270869382636 -0.21182151611383723 0.6963211077766811 0.00048043128217216402 -0.32174049782818281 0.67640254715824644 -0.0048524205435095114 0.3511267348260011 -0.15396192977320566 -0.003177515850689594 -0.4217826080016579 -0.0015929004233203314 0.0037397113785884624 0.34032826837274055 0.0067845246023501837 -0.053978459792829482 0.34183200869881825 -0.0024989988765520277 0.0043744031879581402 0.34218538573255664 -0.0010036227298029689 0.22912047720618051 -0.060218417686509901 -0.00048792165745170646 0.0027984282862405663 0.016259475948178156 0.0030822646246921742 0.10594368191009039 0.34298529502544239 0.0041213147838530251 -0.32606107731148726 -0.13664830782683046 -0.0010953793064958032 -0.00018409060994713938 -0.069127855383720599 0.67749173819785924 -0.0039469464477127209 -0.29282445045836208 -0.63733953951169242 -0.0028794612670806699 -0.49444570130396648 -0.0080135971531916372 0.0029575661016312677 -0.495467319932478 0.0021129145739781563 0.24561103932627823 0.23570893941377691 0.070434343114848641 0.00047713380620580115 -0.28872854602964088 0.53372194100170689 -0.69878538722603989 -0.020078274027626783 -0.00076067475623087244 -0.00085823178012500723 -0.33480384767520827 -0.90525316113233512 0.11858098827996656 0.34245102783855896 -0.12874188241256296 -0.81652375265390564 -0.14709983185623521 -0.0025090460374273295 0.0040914549342020365 0.34213239016970726 -0.001712550780458344 0.38155077117416203 -0.1835415024231335 -0.001293795903310007 0.0015446874489583873 0.34506863796270415 0.0015489137597357455 0.0095539666347724608 0.34943928100445137 -0.018454924882781235 0.0006980773033719162 0.34142711801734144 0.25852043754827547 0.0055297693303963807 -0.30365427965923858 -0.00034580445593976848 -0.15900067495400735 0.34068950930570446 -0.23451658716942794 -0.0044785335239456714 -0.2845329264182499 0.0003202325798409289 0.43866905296596903 0.34115771046694221 0.0082612638796356608 -0.084891365343968697 0.34148845595996963 -0.0020627297910421061 -0.0030582329679254422 -0.25210932634646288 8.3584924695984109e-05 0.00074314690256208939 0.34343190711322635 0.0056543443418306943 0.0044592557439750574 -0.38996479985999183 0.0046380604330748809 0.90711989028297524 -0.21263402503794521 -0.0013741205320140226 -0.53953432396341949 0.34159440439545635 1.665383503957063e-05 -0.87823867643046971 -0.46778229135318861 0.94332476917703323 -0.00036671445231972744 -0.44169406504257014 0.0046708186816333819 -0.030202482166328537 0.24437523813311135 -0.017206475385735193 0.0122595201505631 0.23053746244332424 -0.0040775611831620415 0.64161768097545147 -0.3351262625330787 0.65811724983688402 0.0019274347843662451 0.24001399387958408 0.1317345597767936 -0.0065011660450759005 0.2404606004866025 -0.21548126666035727 0.0034315903239253397 0.2370155231927947 0.0061235948455456834 0.00054907287394767579 0.23721789626947259 0.0015182021489639069 0.00022437976929979425 0.23765350980917463 0.11231918218763444 0.0053257809207955878 0.24112327721683233 -0.0041300412622443244 </DataArray>
<DataArray Name="radii" format="ascii" type="Float32">1.2 1 1.2 1.2 1.2 1.2 1.2 1 1.2 1.2 1.2 1.2 1.2 1.2 1.2 1.2 1.2 1.2 1 1 1 1 1 1.2 1.2 1.2 1.2 1.2 1.2 1.2 1.2 1.2 1.2 1.2 1.2 1.2 1.2 1.2 1.2 1.2 1.2 1.2 1.2 1 1 1 1 1 1 1 1 1 1 </DataArray>
</PointData>
<CellData/>
</Piece>
</UnstructuredGrid>
</VTKFile>
