<?xml version="1.0" ?>
<VTKFile byte_order="LittleEndian" type="UnstructuredGrid" version="0.1">
<UnstructuredGrid>
<Piece NumberOfCells="0" NumberOfPoints="53">
<Points>
<DataArray NumberOfComponents="3" format="ascii" type="Float32">1.1670661790136276 1.1186128456930251 1.0934140059450712 3.4611604960734992 1 0.90955900385922006 1.1495776274723002 1.1265577766446759 4.1995964651245794 3.2142067730422585 1.1180366448496839 3.8586545158499734 6.4909090336634732 1.1254135676761872 5.818010524319094 7.2111964413658987 1.13475389708578 7.3690212099227592 4.3574920779892468 1.1408992016147623 8.8716408585313129 7.5575096452993069 1 9.0 3.3307886929401751 3.9071963988108052 1.1791547540348446 6.5536332795188645 1.1161085324464908 2.5301534987182364 7.8029624263632424 4.5679455050315347 2.5647501082639033 1.1920521569791949 3.1164943935709464 4.593656427068133 4.924069154751689 3.1851918114781115 2.964488097094732 8.8295502801116683 1.1569569180779247 2.7658118451695866 2.7246242438351111 1.1601892858762786 5.627191356083693 8.8130185601671691 3.1934556685960196 6.747478049359799 1.1623320877588061 1.1522744885176859 7.3667469997547572 2.7507518656385295 1.1554973833311428 8.8693215173154574 5.3593584900859099 1 0.9356045386243651 7.2544558395054963 1 4.299804149210936 3.2393218370332879 1 7.1708379878023978 9.0 2.8013734135030024 8.8511048686860878 6.0749809237504264 1 9.0 1.1261589471800888 1.155409644303294 2.7751742063694715 7.1783150609226425 1.133556467627125 1.1065485176621492 8.8173017229984652 3.1306095497048614 1.1884922557110278 1.1126117513360649 1.14688319733275 5.8655573424894811 2.6690260586857923 2.8418347356965867 2.8900831333330279 8.8284757179502975 1.1398484572584826 5.8087610726559715 4.5335138644081274 3.1324739380444862 6.6607201118769286 6.7310665359547981 4.2816285394179241 6.5099230610091414 3.5050481750396973 3.3348051051236016 8.8213495126147574 5.1228578767555648 1.12413924883715 7.3048322032097719 1.1786248519988807 3.092078941501073 1.1737487112159803 5.4034750924957073 1.1297046016653596 4.0259279376082846 8.8459803451076304 3.4283925993373949 4.3687590087035035 1.1891741943511258 4.5335118660503149 2.8765286001489576 4.4831680028129632 1.1335234936328826 2.4716932674460805 7.1283119564546737 2.6600731273114731 3.3285837837355134 4.4608186768300762 1.1273693496287871 5.5726117782737052 8.8883160773492467 1.1416566003434676 7.4831905573086592 1.1475322967685875 3.3654210016789547 6.6803750800646018 1.1123442128369292 1.1140528170697213 8.9000000000000004 2.7138543681185876 1 2.1096242616550929 6.5716419878371681 4.2586531949513713 4.4091455825838768 3.5969354206730122 2.9350606073600014 4.7517092153147384 9.0 1 9.0 5.4462668278923791 2.7229270782710095 9.0 4.5785002554297254 2.4848195976152834 0.96745279767863124 7.3548609320517411 2.6390574628948551 5.3826201953893333 2.7511586369229986 2.5562552092488788 7.165019354672034 7.248363580456668 2.7038231241609738 9.0 6.3404393604390501 2.7000019404392406 7.4087845175013367 </DataArray>
</Points>
<Cells>
<DataArray Name="connectivity" format="ascii" type="Int32">0</DataArray>
<DataArray Name="offsets" format="ascii" type="Int32">0</DataArray>
<DataArray Name="types" format="ascii" type="UInt8">1</DataArray>
</Cells>
<PointData>
<DataArray Name="Points" NumberOfComponents="3" format="ascii" type="Float32">1.1670661790136276 1.1186128456930251 1.0934140059450712 3.4611604960734992 1 0.90955900385922006 1.1495776274723002 1.1265577766446759 4.1995964651245794 3.2142067730422585 1.1180366448496839 3.8586545158499734 6.4909090336634732 1.1254135676761872 5.818010524319094 7.2111964413658987 1.13475389708578 7.3690212099227592 4.3574920779892468 1.1408992016147623 8.8716408585313129 7.5575096452993069 1 9.0 3.3307886929401751 3.9071963988108052 1.1791547540348446 6.5536332795188645 1.1161085324464908 2.5301534987182364 7.8029624263632424 4.5679455050315347 2.5647501082639033 1.1920521569791949 3.1164943935709464 4.593656427068133 4.924069154751689 3.1851918114781115 2.964488097094732 8.8295502801116683 1.1569569180779247 2.7658118451695866 2.7246242438351111 1.1601892858762786 5.627191356083693 8.8130185601671691 3.1934556685960196 6.747478049359799 1.1623320877588061 1.1522744885176859 7.3667469997547572 2.7507518656385295 1.1554973833311428 8.8693215173154574 5.3593584900859099 1 0.9356045386243651 7.2544558395054963 1 4.299804149210936 3.2393218370332879 1 7.1708379878023978 9.0 2.8013734135030024 8.8511048686860878 6.0749809237504264 1 9.0 1.1261589471800888 1.155409644303294 2.7751742063694715 7.1783150609226425 1.133556467627125 1.1065485176621492 8.8173017229984652 3.1306095497048614 1.1884922557110278 1.1126117513360649 1.14688319733275 5.8655573424894811 2.6690260586857923 2.8418347356965867 2.8900831333330279 8.8284757179502975 1.1398484572584826 5.8087610726559715 4.5335138644081274 3.1324739380444862 6.6607201118769286 6.7310665359547981 4.2816285394179241 6.5099230610091414 3.5050481750396973 3.3348051051236016 8.8213495126147574 5.1228578767555648 1.12413924883715 7.3048322032097719 1.1786248519988807 3.092078941501073 1.1737487112159803 5.4034750924957073 1.1297046016653596 4.0259279376082846 8.8459803451076304 3.4283925993373949 4.3687590087035035 1.1891741943511258 4.5335118660503149 2.8765286001489576 4.4831680028129632 1.1335234936328826 2.4716932674460805 7.1283119564546737 2.6600731273114731 3.3285837837355134 4.4608186768300762 1.1273693496287871 5.5726117782737052 8.8883160773492467 1.1416566003434676 7.4831905573086592 1.1475322967685875 3.3654210016789547 6.6803750800646018 1.1123442128369292 1.1140528170697213 8.9000000000000004 2.7138543681185876 1 2.1096242616550929 6.5716419878371681 4.2586531949513713 4.4091455825838768 3.5969354206730122 2.9350606073600014 4.7517092153147384 9.0 1 9.0 5.4462668278923791 2.7229270782710095 9.0 4.5785002554297254 2.4848195976152834 0.96745279767863124 7.3548609320517411 2.6390574628948551 5.3826201953893333 2.7511586369229986 2.5562552092488788 7.165019354672034 7.248363580456668 2.7038231241609738 9.0 6.3404393604390501 2.7000019404392406 7.4087845175013367 </DataArray>
<DataArray Name="forces" NumberOfComponents="3" format="ascii" type="Float32">-0.31859363856450312 -0.43721499259989582 -1.0310865441342396 -0.044994826869716772 -0.14393872614436531 -0.87490382752163065 -0.48777356065978367 -0.36035769562613856 -0.00085894625593829765 0.0030482397153151486 -0.4427890170442495 0.022085058866282106 0.024591642326023372 -0.37142649018537888 -0.0005933841257934197 0.016017688605010572 -0.28107045365914257 0.010695058931441738 -0.016418456599412046 -0.22162229758926061 0.69303594620313969 -0.00148456767474172 -0.33896264075721 0.63720948785371789 -0.0069648839535820239 0.40427183139884154 -0.20165175372632774 -0.0040808772537215543 -0.46144109954475415 0.000756485352357672 -0.0033432053082279173 0.33827707274531887 0.0093375080960239609 -0.076885467610502009 0.35009381741329892 -0.00070626816458063679 0.00892904651994012 0.34454150056349692 0.016815588020842716 0.2858621010077223 -0.06628392014581215 -0.0090550543844899987 0.011611457579638138 -0.035014793539384526 0.0087191722201119537 0.12593833112304637 0.3567081641822093 0.040705574300070373 -0.36439006646134914 -0.11158058558696482 -0.0060776979520944154 -0.012457177776543727 -0.080403098293436476 0.67059921293318403 -0.025932580919003828 -0.3767417517822817 -0.62294576615306207 0.0029976882554850937 -0.45659122662684754 0.0010460306800774942 0.028193543594372303 -0.54593849311772225 0.00081483537500980975 0.24538948055999762 0.23150610992605664 0.043815026039833269 0.00062109919331969354 -0.24305557336408645 0.43391403560394942 -0.71432008156793492 -0.081251863947992678 -0.00078146614364194011 -0.013073130965453317 -0.29265409007700738 -0.90402652639613568 0.16737258898070481 0.35233045846917577 -0.11132307199369983 -0.84537230347924675 -0.16373460305976797 -0.0074787139817317494 0.0087733676216397577 0.35763513657915852 -0.0027938244125802481 0.27546705243449798 -0.23178693860697952 -0.0019206470816153162 -0.0060319688610185607 0.33284601912141426 0.028660650527382758 0.010629163372072543 0.40179470405242546 -0.028502691597323965 0.003441509020312386 0.3583834145736513 0.20652990457222825 0.04610898526617882 -0.38375393545169495 0.015594136864005369 -0.20677789495938692 0.35917400801550414 -0.25394847485717231 -0.00098230436548263356 -0.32991608869324424 0.0091114549318495608 0.44480248606296757 0.36261465465495724 0.032514916582333436 -0.10472616625608469 0.35441345522392748 0.0088539804974439862 0.0013935258586561909 -0.29297307234171399 -0.003202396216216985 0.01094571067737285 0.34249013759986668 0.013047384290820085 0.026106515585740467 -0.35250673930753684 0.016977738820405909 0.85434788869725686 -0.21429540961831417 0.0018550127798916405 -0.5075595840074284 0.35420185212675459 -4.3920174204306606e-05 -0.84796040474848566 -0.48132758165106737 0.96737526658790918 0.0061036722216479267 -0.37595726047882139 0.04487927143240085 0.016091637486740661 0.25680883467255816 -0.027747276942924018 0.05120302359424217 0.23737645545977532 -0.011890875033295389 0.64279532622987223 -0.27535215531404089 0.66191876522686333 0.001913601552939459 0.2228308076018248 0.28004939718842481 -0.040978633503844564 0.25143554041710164 -0.31485358522324713 0.01674661465357382 0.24999443024771392 0.025441885499389999 -0.013380562189623857 0.24091278850002021 0.011383481436693044 -0.0052570474561880326 0.24950426392816655 0.16667462168798342 0.043029807004055384 0.28096966034471105 -0.030135907057526418 </DataArray>
<DataArray Name="radii" format="ascii" type="Float32">1.2 1 1.2 1.2 1.2 1.2 1.2 1 1.2 1.2 1.2 1.2 1.2 1.2 1.2 1.2 1.2 1.2 1 1 1 1 1 1.2 1.2 1.2 1.2 1.2 1.2 1.2 1.2 1.2 1.2 1.2 1.2 1.2 1.2 1.2 1.2 1.2 1.2 1.2 1.2 1 1 1 1 1 1 1 1 1 1 </DataArray>
</PointData>
<CellData/>
</Piece>
</UnstructuredGrid>
</VTKFile>
