<?xml version="1.0" ?>
<VTKFile byte_order="LittleEndian" type="UnstructuredGrid" version="0.1">
<UnstructuredGrid>
<Piece NumberOfCells="0" NumberOfPoints="53">
<Points>
<DataArray NumberOfComponents="3" format="ascii" type="Float32">1.1557721725224113 1.1158261645278478 1.0950033873531602 3.6197595835751115 1 0.90880773586265873 1.1454531548350479 1.1301293517861355 4.2072544611907947 3.1989373214448671 1.1169539549490546 3.7444168757704261 6.2593066215560187 1.1363376394961533 5.8374252431434686 7.0670570632383836 1.1283267551880225 7.3675044124311695 4.5258947142021242 1.1464324656942424 8.8711218112004904 7.6123320793245695 1 9.0 3.3168843557817511 3.6596169180712126 1.1702763518543551 6.5381160461547276 1.1169910547929236 2.5097169913553454 7.8045295975715403 4.6143783061397468 2.5251964279054961 1.1881786917632386 3.1458354586474897 4.569337318477225 4.9283556838960552 3.2021307180637106 2.890033227243467 8.8292813100398799 1.1549737317777515 2.8131219604140791 2.6798816583188638 1.1502533821253373 5.5612860319946869 8.8240056677762038 3.1249793956427818 6.5325343595424048 1.155814370530907 1.158504509913564 7.3943505471409425 2.8640617164875444 1.1491209839027337 8.8638801290836717 5.4443750897131107 1 0.93634158199774842 7.1796737563698079 1 4.2607075584219567 3.0523377568365411 1 7.1442744026749025 9.0 2.9797848471800563 8.6271414427937607 6.1155746822763275 1 9.0 1.1288172930384375 1.1536251116765388 2.777553989796457 7.2328834375026974 1.1361795355265087 1.1120377419080243 8.8212646792960374 3.1225605193631938 1.1898561663109273 1.1136726521100488 1.1505427793558705 5.8939107297771418 2.6542474847332915 2.831181446548622 2.9179195524332044 8.5308646103307897 1.1253977255272833 5.8355051073792747 4.5621816468552581 3.1791572109071806 6.5479755884252064 6.7720413006648377 4.0390515038771797 6.7041371340033287 3.5270283177070043 3.2670979946051455 8.8211693709417993 4.8118214758165276 1.120310602228749 7.275149846770927 1.1722620553612861 3.0344769745616746 1.1737268898859818 5.391578274224238 1.1324319265465264 3.98090574669911 8.8421240544137394 3.3881974327579543 4.2475720772521397 1.19017143200985 4.5400709074411409 2.7840708718107536 4.4614314520582283 1.1353285844490402 2.4686604384535626 7.1371549668666061 2.6682542448992081 3.2494376655925397 4.3375861197908909 1.1281553111458535 5.4943151670582786 8.8857728174409143 1.1468334721100306 7.4727207207161337 1.1589739024013443 3.3644914199888696 6.6606508405000078 1.1263799962936187 1.1155398851302256 8.9000000000000004 2.6835842347663621 1 1.918405341407655 6.4814704795438809 4.2456716310632849 4.3870907420869392 3.3727712326928669 2.9315113764873102 4.8212548320389841 9.0 1 9.0 5.5332049472252738 2.8481282637130603 9.0 4.722127605791 2.4647528890205064 0.95997266753536226 7.1887307286431268 2.6489701143532995 5.255353148279192 2.8071833580934631 2.561016604481563 7.11039268276408 7.3328802498502776 2.6405496679463472 9.0 6.1053321120933077 2.48426330049119 7.5650487044630639 </DataArray>
</Points>
<Cells>
<DataArray Name="connectivity" format="ascii" type="Int32">0</DataArray>
<DataArray Name="offsets" format="ascii" type="Int32">0</DataArray>
<DataArray Name="types" format="ascii" type="UInt8">1</DataArray>
</Cells>
<PointData>
<DataArray Name="Points" NumberOfComponents="3" format="ascii" type="Float32">1.1557721725224113 1.1158261645278478 1.0950033873531602 3.6197595835751115 1 0.90880773586265873 1.1454531548350479 1.1301293517861355 4.2072544611907947 3.1989373214448671 1.1169539549490546 3.7444168757704261 6.2593066215560187 1.1363376394961533 5.8374252431434686 7.0670570632383836 1.1283267551880225 7.3675044124311695 4.5258947142021242 1.1464324656942424 8.8711218112004904 7.6123320793245695 1 9.0 3.3168843557817511 3.6596169180712126 1.1702763518543551 6.5381160461547276 1.1169910547929236 2.5097169913553454 7.8045295975715403 4.6143783061397468 2.5251964279054961 1.1881786917632386 3.1458354586474897 4.569337318477225 4.9283556838960552 3.2021307180637106 2.890033227243467 8.8292813100398799 1.1549737317777515 2.8131219604140791 2.6798816583188638 1.1502533821253373 5.5612860319946869 8.8240056677762038 3.1249793956427818 6.5325343595424048 1.155814370530907 1.158504509913564 7.3943505471409425 2.8640617164875444 1.1491209839027337 8.8638801290836717 5.4443750897131107 1 0.93634158199774842 7.1796737563698079 1 4.2607075584219567 3.0523377568365411 1 7.1442744026749025 9.0 2.9797848471800563 8.6271414427937607 6.1155746822763275 1 9.0 1.1288172930384375 1.1536251116765388 2.777553989796457 7.2328834375026974 1.1361795355265087 1.1120377419080243 8.8212646792960374 3.1225605193631938 1.1898561663109273 1.1136726521100488 1.1505427793558705 5.8939107297771418 2.6542474847332915 2.831181446548622 2.9179195524332044 8.5308646103307897 1.1253977255272833 5.8355051073792747 4.5621816468552581 3.1791572109071806 6.5479755884252064 6.7720413006648377 4.0390515038771797 6.7041371340033287 3.5270283177070043 3.2670979946051455 8.8211693709417993 4.8118214758165276 1.120310602228749 7.275149846770927 1.1722620553612861 3.0344769745616746 1.1737268898859818 5.391578274224238 1.1324319265465264 3.98090574669911 8.8421240544137394 3.3881974327579543 4.2475720772521397 1.19017143200985 4.5400709074411409 2.7840708718107536 4.4614314520582283 1.1353285844490402 2.4686604384535626 7.1371549668666061 2.6682542448992081 3.2494376655925397 4.3375861197908909 1.1281553111458535 5.4943151670582786 8.8857728174409143 1.1468334721100306 7.4727207207161337 1.1589739024013443 3.3644914199888696 6.6606508405000078 1.1263799962936187 1.1155398851302256 8.9000000000000004 2.6835842347663621 1 1.918405341407655 6.4814704795438809 4.2456716310632849 4.3870907420869392 3.3727712326928669 2.9315113764873102 4.8212548320389841 9.0 1 9.0 5.5332049472252738 2.8481282637130603 9.0 4.722127605791 2.4647528890205064 0.95997266753536226 7.1887307286431268 2.6489701143532995 5.255353148279192 2.8071833580934631 2.561016604481563 7.11039268276408 7.3328802498502776 2.6405496679463472 9.0 6.1053321120933077 2.48426330049119 7.5650487044630639 </DataArray>
<DataArray Name="forces" NumberOfComponents="3" format="ascii" type="Float32">-0.43975842372139118 -0.47709309928672861 -1.0439840142963572 -0.03089714039335803 -0.17371349435342759 -0.90672702277639272 -0.54236068142549088 -0.33487614128480542 -0.0084264006403690361 0.0030127092683948087 -0.46587945018381249 0.040929227830750148 0.06009587585602174 -0.27314697724775938 -0.0087732886382193911 0.032323145261402675 -0.35279940552366978 -0.0080863706029630084 -0.084758664583675758 -0.1727738612754087 0.70716599411505177 -0.039965158570286083 -0.40241274994377058 0.59699572336489837 0.014191100116281996 0.42496533456068486 -0.29554299637262399 0.011251571554208611 -0.4655105654840504 0.0014605913022676109 0.0026739880537462873 0.35089348631540485 0.012816194963113633 -0.11753957119320607 0.32404047393938024 0.019345146351953762 -0.011339257104787167 0.35904597374585762 0.019847636307670655 0.29114481723434643 -0.08784783339460725 -0.005454857824108577 -0.0018955835210197544 -0.1347823911368205 0.038852924829343619 0.23868897080670604 0.38204931652553004 0.045009264581957642 -0.43933884783990229 -0.052741215772441036 0.00047707264236589858 -0.039102909142611809 -0.14604185572728484 0.63516176296900917 -0.015677675692514326 -0.4269312434705228 -0.63295728399621232 0.028832778270836686 -0.45553477889380534 0.020441383503370623 0.071296313745785989 -0.6176731538870126 0.045114345777214002 0.25565310942801933 0.062674993088936759 0.044983779384092946 -0.039915722021499442 -0.16414140023643797 0.35637454871570629 -0.70777148223028796 -0.10125719767343994 -0.0040258705762174496 -0.00911829168911793 -0.27471900907568986 -0.87461098976888574 0.21143525200067559 0.36291108466074584 -0.10086039871298226 -0.8583550356700187 -0.1319049070462206 -0.00064899801240462379 -0.0033272537339330138 0.3519186237443947 -0.018851804598844252 0.12459941376348332 -0.38192282261424554 0.011165628433166361 -0.013854623940027233 0.36031553211041134 0.024819847035379802 -0.018009280246297887 0.4167212123755773 -0.047227833673898392 -0.01710489063379543 0.38912967883197325 0.21048759858838212 0.087428214095531753 -0.43250422013311396 -0.0002436970750230652 -0.27579909543992537 0.37564285464779279 -0.26123420816574672 0.011331297124513029 -0.31198158134642334 0.0036443625147944969 0.41884055415397126 0.35900502677541912 0.014175717175999233 -0.097725703777265346 0.34630525711634685 0.040316811520910212 0.0035949121364209531 -0.2831800374787049 0.0052151249857770587 -0.021276247511226375 0.35888758552779271 0.024127892060234801 0.012250977436943637 -0.35450407803508527 0.019749142730165301 0.85284132518315947 -0.16878664419135714 0.015924073839907238 -0.40792354136243431 0.35248169420333397 0.011986298392674316 -0.7320055863174908 -0.47993958268467618 0.99430256651025273 0.0090118143454517852 -0.28150371756670289 0.049477704627755831 0.0069539975414892458 0.24618668190592885 0.030585939272466403 0.055032681954987679 0.27025220659375188 -0.042006545913668134 0.6993417911384463 -0.082990295600303812 0.63441135233292378 -0.051643954750710541 0.22303927504088172 0.50251691184074487 -0.021013352691688456 0.25162533994740044 -0.3979927940014848 0.05196994627622601 0.23794387617069013 0.032071071837951978 -0.015362646100779587 0.25439996947683063 0.018043728760141181 -0.048711081575794707 0.27151117419888787 0.1380950097752501 0.047492504630372384 0.30361319446812562 -0.038622075871278652 </DataArray>
<DataArray Name="radii" format="ascii" type="Float32">1.2 1 1.2 1.2 1.2 1.2 1.2 1 1.2 1.2 1.2 1.2 1.2 1.2 1.2 1.2 1.2 1.2 1 1 1 1 1 1.2 1.2 1.2 1.2 1.2 1.2 1.2 1.2 1.2 1.2 1.2 1.2 1.2 1.2 1.2 1.2 1.2 1.2 1.2 1.2 1 1 1 1 1 1 1 1 1 1 </DataArray>
</PointData>
<CellData/>
</Piece>
</UnstructuredGrid>
</VTKFile>
