<?xml version="1.0" ?>
<VTKFile byte_order="LittleEndian" type="UnstructuredGrid" version="0.1">
<UnstructuredGrid>
<Piece NumberOfCells="0" NumberOfPoints="53">
<Points>
<DataArray NumberOfComponents="3" format="ascii" type="Float32">1.1683486773635783 1.1165694496326546 1.0938489266065377 3.2672828028403815 1 0.91526538726133055 1.1495917562421683 1.1209279572438378 4.1967880452816519 3.1615695619029478 1.120364994651835 4.0194976329303485 6.599056983857837 1.108385539817589 5.763983397114302 7.2502667767714257 1.1373859854395125 7.405858454448949 4.3279514546283258 1.1415972328939832 8.8744164539009365 7.5531482561880434 1 9.0 3.2378442630738733 4.200695752237765 1.1836494160791653 6.4564595191087122 1.1281911702575789 2.5392906133608593 8.1814563485817757 4.6294580405917243 2.7030593254986774 1.186793647170459 3.0998386501153918 4.5005882197359162 5.0450888152875626 3.0968294013170903 2.9227725387469796 8.8239458517696914 1.1531358409967984 2.7414091635125222 2.794445113794926 1.1654667092975179 5.7206050676003573 8.8051753839142357 3.1993885251307201 6.9516505815012497 1.167943033448388 1.1511522576502224 7.3351837455785525 2.7151430275338533 1.1565146047750821 8.8738147726551944 5.2116785910139569 1 0.93214616211536971 7.2082351801830447 1 4.179539355682671 3.3521479983626903 1 7.2074133647172713 9.0 2.7504391167789914 9.0 6.0792924926664087 1 9.0 1.1245953805773263 1.1646530057776656 2.7606305801196167 7.1176459740362903 1.1278760458866908 1.1075831786312227 8.8086350086194543 3.1337367869903474 1.1861045392929834 1.1143557986165464 1.1491743920166995 5.8031019933253445 2.7822608901117469 2.8739175989068007 2.8542463976502863 8.8542689948015223 1.132902529534481 5.8500085016691008 4.6161273454672376 3.1339421455699652 6.7256118938510419 7.0136888511270774 4.4000914729390264 5.9362635266763633 3.5307951994459184 3.3690734294525218 8.8266923155014894 5.3181502440720161 1.1429581809632905 7.3687431520922209 1.1849271237390204 3.0977121673265606 1.1759794972870929 5.3098440452106548 1.1321924665505865 4.0852531400204555 8.8524545181615988 3.5054813726694865 4.6310203226088413 1.1929335403254264 4.5484269382481912 2.8493673272522786 4.4096852264384037 1.1299300440783626 2.464772864016576 7.2786721810522552 2.7423885134601549 3.3339095502885767 4.6037099064958538 1.1294584519375059 5.695565284670657 8.897124928295197 1.1396709062358013 7.5084954659382195 1.1461501393085325 3.3806010870978302 6.6464577150097677 1.1053829371297801 1.1145017660534218 8.9000000000000004 2.7172176629774221 1 2.3286030531405491 6.2544078991713024 4.4380312751481847 3.9479177101377538 3.9753323154054772 2.8244064983351107 4.6467613939130787 9.0 1 9.0 5.4521264854099263 2.7022627791024534 9.0 4.3418695200062754 2.5476279494372989 0.97329965406443719 7.5051312234073242 2.5179183430731382 5.4347224234727651 2.744800033047639 2.5583379362194476 7.2422181259374625 7.2134993090654005 2.7212213944738468 9.0 6.6251975620384442 2.8564470671951199 7.1681434192555322 </DataArray>
</Points>
<Cells>
<DataArray Name="connectivity" format="ascii" type="Int32">0</DataArray>
<DataArray Name="offsets" format="ascii" type="Int32">0</DataArray>
<DataArray Name="types" format="ascii" type="UInt8">1</DataArray>
</Cells>
<PointData>
<DataArray Name="Points" NumberOfComponents="3" format="ascii" type="Float32">1.1683486773635783 1.1165694496326546 1.0938489266065377 3.2672828028403815 1 0.91526538726133055 1.1495917562421683 1.1209279572438378 4.1967880452816519 3.1615695619029478 1.120364994651835 4.0194976329303485 6.599056983857837 1.108385539817589 5.763983397114302 7.2502667767714257 1.1373859854395125 7.405858454448949 4.3279514546283258 1.1415972328939832 8.8744164539009365 7.5531482561880434 1 9.0 3.2378442630738733 4.200695752237765 1.1836494160791653 6.4564595191087122 1.1281911702575789 2.5392906133608593 8.1814563485817757 4.6294580405917243 2.7030593254986774 1.186793647170459 3.0998386501153918 4.5005882197359162 5.0450888152875626 3.0968294013170903 2.9227725387469796 8.8239458517696914 1.1531358409967984 2.7414091635125222 2.794445113794926 1.1654667092975179 5.7206050676003573 8.8051753839142357 3.1993885251307201 6.9516505815012497 1.167943033448388 1.1511522576502224 7.3351837455785525 2.7151430275338533 1.1565146047750821 8.8738147726551944 5.2116785910139569 1 0.93214616211536971 7.2082351801830447 1 4.179539355682671 3.3521479983626903 1 7.2074133647172713 9.0 2.7504391167789914 9.0 6.0792924926664087 1 9.0 1.1245953805773263 1.1646530057776656 2.7606305801196167 7.1176459740362903 1.1278760458866908 1.1075831786312227 8.8086350086194543 3.1337367869903474 1.1861045392929834 1.1143557986165464 1.1491743920166995 5.8031019933253445 2.7822608901117469 2.8739175989068007 2.8542463976502863 8.8542689948015223 1.132902529534481 5.8500085016691008 4.6161273454672376 3.1339421455699652 6.7256118938510419 7.0136888511270774 4.4000914729390264 5.9362635266763633 3.5307951994459184 3.3690734294525218 8.8266923155014894 5.3181502440720161 1.1429581809632905 7.3687431520922209 1.1849271237390204 3.0977121673265606 1.1759794972870929 5.3098440452106548 1.1321924665505865 4.0852531400204555 8.8524545181615988 3.5054813726694865 4.6310203226088413 1.1929335403254264 4.5484269382481912 2.8493673272522786 4.4096852264384037 1.1299300440783626 2.464772864016576 7.2786721810522552 2.7423885134601549 3.3339095502885767 4.6037099064958538 1.1294584519375059 5.695565284670657 8.897124928295197 1.1396709062358013 7.5084954659382195 1.1461501393085325 3.3806010870978302 6.6464577150097677 1.1053829371297801 1.1145017660534218 8.9000000000000004 2.7172176629774221 1 2.3286030531405491 6.2544078991713024 4.4380312751481847 3.9479177101377538 3.9753323154054772 2.8244064983351107 4.6467613939130787 9.0 1 9.0 5.4521264854099263 2.7022627791024534 9.0 4.3418695200062754 2.5476279494372989 0.97329965406443719 7.5051312234073242 2.5179183430731382 5.4347224234727651 2.744800033047639 2.5583379362194476 7.2422181259374625 7.2134993090654005 2.7212213944738468 9.0 6.6251975620384442 2.8564470671951199 7.1681434192555322 </DataArray>
<DataArray Name="forces" NumberOfComponents="3" format="ascii" type="Float32">-0.2960003419166542 -0.44177867699132661 -0.99271535601259431 -0.00024588936471606204 -0.129465231146696 -0.79243052907874012 -0.47141339270816446 -0.40101830315241399 -2.9434899973646012e-05 -5.1798782316134218e-05 -0.40628307902397254 0.00049808020023378585 0.00034652394081998122 -0.51831387052181632 -0.00054958767780029574 7.5902721275139529e-05 -0.24710429364470837 2.4956813865294192e-05 -4.0081546402920276e-05 -0.20772108363677824 0.6959360293384721 4.4926732469148523e-05 -0.32308648025102971 0.68987908955404309 -0.00028993835217722141 0.33882757610454839 -0.15290920024728474 3.8798997467448526e-05 -0.33309338386304116 0.00020994518315070598 0.018130631339072265 0.340078711838394 0.0027611727694503083 -0.12350463195234336 0.33837644886455176 -0.00058075652771236164 0.00068780259981185768 0.33796121616831348 -0.00019133882830675575 0.22393946669254594 -0.099813051390901769 -0.00062632138063443976 6.544491752476277e-05 0.015504127454009059 0.00041734817748520503 0.048399728054361414 0.337455202638198 0.0005531318373253602 -0.29979388757577274 -0.11836334565668 -6.8470268914960775e-05 -6.2214015559268173e-05 -0.06821515435778755 0.6903091600758402 -0.00024328610647007809 -0.27672742038810272 -0.63456303058552199 -0.00025693923470841533 -0.43972200079591001 -0.0016816518267027706 0.00055081608147818095 -0.50328689853658926 9.3754245806497265e-05 0.2222690389646573 0.23482242658757022 0.092441279312488189 -1.1223406875954245e-05 -0.27497903711870164 0.57405500737961668 -0.70517726502597788 0.0078944448236235032 -2.2332308850514515e-05 -0.00035600889516695933 -0.33604039882986009 -0.86427385794394085 0.080753829252941584 0.3373289588749282 -0.12994910726521602 -0.80093692083216894 -0.13686016838074239 -0.00026464821232506305 0.00051943120134821316 0.33843673982678052 -7.5469873857883507e-05 0.50751879159194846 -0.28903317276619234 -0.00040042479597984793 0.00098151725987105642 0.33882317399735795 0.0004497398967786316 0.0053506014200093883 0.3386227614391869 -0.0044996257447893762 -8.906803745456493e-05 0.33870597628700266 0.249624150173617 0.0008848420863378989 -0.19499361886466743 -5.984578139729517e-05 -0.14096019234859386 0.33826390245501881 -0.22463759564501606 -0.000125550169129858 -0.29567361836239747 0.00022612330575609747 0.49054996814066032 0.33520659706062461 0.0015782472146148863 -0.066084899637246633 0.33841221474661853 -0.00038720702551767183 -9.4188336850738533e-06 -0.31683159122282978 2.7827239951538907e-05 0.0029645459513119032 0.34126149061473449 -0.0033639238013417061 0.0003708995085932934 -0.32124187879729404 0.0001892884000731232 0.90830365334959773 -0.22573591846737273 -0.00011473670462058827 -0.50359908683552668 0.33840946598717703 -0.00018497360794893225 -0.88485031992018581 -0.46111546912032675 0.93519106710581168 4.5158048381011007e-05 -0.4586275346861316 0.00044227242594785388 -0.00055302620759237198 0.23562623562012497 -0.0018907812273002977 0.0012830803950663466 0.23530057016622513 -0.00033006933552305606 0.64298436342988763 -0.33937862014519271 0.66998512122971043 -0.00050734938429311538 0.23499395192514802 0.12398005756857718 -0.00050835669172588985 0.23511281302777148 -0.24969925007573282 -0.00040373537411180806 0.23387520642161475 -0.0018543068223563844 0.00034009913380844692 0.23488193640431274 0.00056216305623162099 -0.00053587888112354917 0.23502754607604542 0.067790448988472696 0.0019073969191441657 0.23590895762277775 -0.0020147870282209435 </DataArray>
<DataArray Name="radii" format="ascii" type="Float32">1.2 1 1.2 1.2 1.2 1.2 1.2 1 1.2 1.2 1.2 1.2 1.2 1.2 1.2 1.2 1.2 1.2 1 1 1 1 1 1.2 1.2 1.2 1.2 1.2 1.2 1.2 1.2 1.2 1.2 1.2 1.2 1.2 1.2 1.2 1.2 1.2 1.2 1.2 1.2 1 1 1 1 1 1 1 1 1 1 </DataArray>
</PointData>
<CellData/>
</Piece>
</UnstructuredGrid>
</VTKFile>
