<?xml version="1.0" ?>
<VTKFile byte_order="LittleEndian" type="UnstructuredGrid" version="0.1">
<UnstructuredGrid>
<Piece NumberOfCells="0" NumberOfPoints="53">
<Points>
<DataArray NumberOfComponents="3" format="ascii" type="Float32">1.1693431540882158 1.1178272098135613 1.0941630925851504 3.2841907996122561 1 0.91495218154717395 1.1510465125862916 1.1235092535122857 4.1938081286733002 3.1892519320346286 1.1176973801055539 3.9794586630000435 6.5954900285885731 1.1147657177071535 5.7747748877513763 7.2508376111888566 1.1388149455176331 7.3968076603915192 4.3339041635970821 1.1418620163711797 8.8739187100732462 7.5553973311982459 1 9.0 3.2498445085765661 4.1824215990435185 1.1838636679767993 6.5007507122125245 1.1208547618969991 2.5215637371566633 7.8504148451683173 4.5299682674776589 2.6196483546865053 1.192129058348445 3.1120656696321216 4.5439414951133896 5.0016011507667431 3.16648272829122 2.9726340127946158 8.8233528508461667 1.1577962013820302 2.7443416734320438 2.782613458876305 1.1660395774510222 5.694822656651775 8.810837357260155 3.2125692600412545 6.9377877667682553 1.1660579495219532 1.1493979111088559 7.3402829316964135 2.7216813396805155 1.1563064751677563 8.872412999092921 5.2253820068216248 1 0.93200078918071882 7.241715133538178 1 4.2381313855490248 3.3348734130985584 1 7.1959414715362087 9.0 2.7501497115984135 9.0 6.0827103291528886 1 9.0 1.1254429344406132 1.1625302479872583 2.7615677005366703 7.1240554741463686 1.1279630709116317 1.1040660242596556 8.8118823037528973 3.1355188864709871 1.1866348029967169 1.1139593635252747 1.1486760411049948 5.8160532339352295 2.7502164112380987 2.87315945760355 2.8563976153730168 8.8441014244515621 1.1428077701984585 5.8201379489278171 4.5432916645333519 3.1075236227603575 6.7273041303574077 6.8936119262991955 4.4808947043630054 6.2629817327814559 3.5307310921635437 3.3598130444878689 8.8279913421859355 5.2820137915747427 1.1342938487403718 7.3535533892720464 1.183442303023035 3.1066737063634835 1.1752026985811077 5.3594782367239047 1.1351612920464513 4.053604374219602 8.8476152735038678 3.4721581140208237 4.5157627653469126 1.1914427460211225 4.547308039168664 2.8713997882555047 4.4416361331616319 1.1371266031143292 2.4620660605839424 7.1601185376533376 2.6684927811697157 3.4247918312074948 4.5780758122609173 1.1222997294112993 5.6621138660220636 8.8963731589383261 1.1414114013301486 7.4956498611218354 1.1426557001989808 3.379363515511725 6.6654632107028533 1.1065960035141198 1.1142422761436424 8.9000000000000004 2.7264448790683575 1 2.3029130921101877 6.3242908347877282 4.3807123050519756 4.18415738090878 3.8412128969060984 2.845822781747076 4.691705554688391 9.0 1 9.0 5.4735346011676507 2.6975291301730926 9.0 4.3638512590177605 2.5472982510948179 0.97724635380608582 7.4396504052606485 2.6509338638417517 5.5336602579651837 2.7161533154959807 2.5578052949747696 7.2252411113452659 7.2374782797122608 2.7254296953859138 9.0 6.5038991383349591 2.8254143091411432 7.2668645646178263 </DataArray>
</Points>
<Cells>
<DataArray Name="connectivity" format="ascii" type="Int32">0</DataArray>
<DataArray Name="offsets" format="ascii" type="Int32">0</DataArray>
<DataArray Name="types" format="ascii" type="UInt8">1</DataArray>
</Cells>
<PointData>
<DataArray Name="Points" NumberOfComponents="3" format="ascii" type="Float32">1.1693431540882158 1.1178272098135613 1.0941630925851504 3.2841907996122561 1 0.91495218154717395 1.1510465125862916 1.1235092535122857 4.1938081286733002 3.1892519320346286 1.1176973801055539 3.9794586630000435 6.5954900285885731 1.1147657177071535 5.7747748877513763 7.2508376111888566 1.1388149455176331 7.3968076603915192 4.3339041635970821 1.1418620163711797 8.8739187100732462 7.5553973311982459 1 9.0 3.2498445085765661 4.1824215990435185 1.1838636679767993 6.5007507122125245 1.1208547618969991 2.5215637371566633 7.8504148451683173 4.5299682674776589 2.6196483546865053 1.192129058348445 3.1120656696321216 4.5439414951133896 5.0016011507667431 3.16648272829122 2.9726340127946158 8.8233528508461667 1.1577962013820302 2.7443416734320438 2.782613458876305 1.1660395774510222 5.694822656651775 8.810837357260155 3.2125692600412545 6.9377877667682553 1.1660579495219532 1.1493979111088559 7.3402829316964135 2.7216813396805155 1.1563064751677563 8.872412999092921 5.2253820068216248 1 0.93200078918071882 7.241715133538178 1 4.2381313855490248 3.3348734130985584 1 7.1959414715362087 9.0 2.7501497115984135 9.0 6.0827103291528886 1 9.0 1.1254429344406132 1.1625302479872583 2.7615677005366703 7.1240554741463686 1.1279630709116317 1.1040660242596556 8.8118823037528973 3.1355188864709871 1.1866348029967169 1.1139593635252747 1.1486760411049948 5.8160532339352295 2.7502164112380987 2.87315945760355 2.8563976153730168 8.8441014244515621 1.1428077701984585 5.8201379489278171 4.5432916645333519 3.1075236227603575 6.7273041303574077 6.8936119262991955 4.4808947043630054 6.2629817327814559 3.5307310921635437 3.3598130444878689 8.8279913421859355 5.2820137915747427 1.1342938487403718 7.3535533892720464 1.183442303023035 3.1066737063634835 1.1752026985811077 5.3594782367239047 1.1351612920464513 4.053604374219602 8.8476152735038678 3.4721581140208237 4.5157627653469126 1.1914427460211225 4.547308039168664 2.8713997882555047 4.4416361331616319 1.1371266031143292 2.4620660605839424 7.1601185376533376 2.6684927811697157 3.4247918312074948 4.5780758122609173 1.1222997294112993 5.6621138660220636 8.8963731589383261 1.1414114013301486 7.4956498611218354 1.1426557001989808 3.379363515511725 6.6654632107028533 1.1065960035141198 1.1142422761436424 8.9000000000000004 2.7264448790683575 1 2.3029130921101877 6.3242908347877282 4.3807123050519756 4.18415738090878 3.8412128969060984 2.845822781747076 4.691705554688391 9.0 1 9.0 5.4735346011676507 2.6975291301730926 9.0 4.3638512590177605 2.5472982510948179 0.97724635380608582 7.4396504052606485 2.6509338638417517 5.5336602579651837 2.7161533154959807 2.5578052949747696 7.2252411113452659 7.2374782797122608 2.7254296953859138 9.0 6.5038991383349591 2.8254143091411432 7.2668645646178263 </DataArray>
<DataArray Name="forces" NumberOfComponents="3" format="ascii" type="Float32">-0.28827685056886942 -0.4323811788542965 -0.99522078792111002 -0.0015888074066345154 -0.12613994657106464 -0.79973384482809862 -0.46032645421498103 -0.37895097057467336 0.00053416179993437396 -0.0021891931259934438 -0.43360201218602112 0.0023728578502085068 0.0018342917023758121 -0.46116944053706327 -0.002377886413000796 -0.00058650776279886574 -0.23502629222468457 3.7033433907519842e-05 0.00056426509047793894 -0.20637363853525398 0.69508301667255667 6.4200078314313735e-05 -0.32163475277488374 0.6759449995940755 -0.0016395015620048609 0.34311103461948878 -0.1517354717040158 -0.0033768325869120153 -0.40391206686351688 -0.0004339426909196753 0.0062949246610263104 0.3431025420210565 0.0052083724097594973 -0.074013167461869853 0.33846459321295985 -0.0041245095145312494 0.00039078160805506267 0.33550307830112153 -0.003880206541111271 0.21959487656066073 -0.056539024611581251 0.00029312102873409879 0.0018198169880641896 0.020976271582354308 0.0011391250149477422 0.10190739218368203 0.34137698915926545 6.4202182011946496e-05 -0.31916875734107486 -0.13551103226952665 -0.00048343752333326537 -8.278411929494179e-05 -0.070547431820089698 0.68092429921923048 -0.0016009904900264188 -0.28442057097737694 -0.63941993225780558 -0.0023069884725353557 -0.50772432214907282 -0.0056217065141415667 0.0010857436998877035 -0.49471787593390937 0.00099625494734158996 0.24466374920899361 0.23637339490063 0.074949569870140134 2.0598184486395055e-05 -0.28080420404407475 0.54079623935035392 -0.70108569253874597 -0.012023158572118928 3.3301748882164084e-05 -3.7879221708891908e-05 -0.33707019599705085 -0.90210012042844856 0.11173338292022678 0.34173316417446536 -0.12567753742265939 -0.80906965365085448 -0.14229902382717249 -0.00053376557722724025 0.0015488161907673756 0.34034373973275578 -0.00093576938691897205 0.41470083984113171 -0.19748039049773763 0.002312972710538163 0.0025716602065433691 0.34218288335998975 0.00070685587594037508 0.0037121835393437719 0.33703856180108649 -0.021879506647292685 -0.0004559793120769845 0.34057315645278924 0.26321220362252684 0.0025973047448950293 -0.2775397178985568 0.00026216606421479265 -0.15569771107334937 0.33977189610038888 -0.23317754136270924 -0.0035386880593979986 -0.26938285058600825 0.0017224595489422345 0.44774276923882272 0.34210491391053299 0.0066453193154710211 -0.080466797975472723 0.34076335714851458 -0.0015176690914826818 -0.0030496781635080952 -0.250902355669268 0.00016881864031875748 0.0026419895726799269 0.3436045331861301 -0.00042707295577118498 0.0025492403281874298 -0.39032454108231146 0.0029632237780337772 0.90622991086746763 -0.21061092652049551 0.00073411607799700462 -0.5392281447440268 0.34104207653043039 -0.0018533270605241986 -0.87830985662961436 -0.46609154132394992 0.94033434293401852 -0.0009571094437473282 -0.44768156685585425 0.0016769807980686197 -0.015948646081581253 0.24310850327341987 -0.015142399372952961 0.00885450323446553 0.23173135338586964 -0.0030236568660417934 0.64282463562370018 -0.33728884391931058 0.65769187130120632 -0.00092660383650786105 0.23802908282983337 0.1233625891888465 -0.0025291767312858576 0.23679280460693705 -0.21396034943107436 0.004378476798601566 0.22911649900061237 -0.00201774019018389 0.00052640122537933598 0.23624711894617245 0.00061926348300660183 -0.0010561279457908523 0.23576082945335827 0.10622735864528839 0.005384185329706255 0.23931382020962072 -0.0043693283015662637 </DataArray>
<DataArray Name="radii" format="ascii" type="Float32">1.2 1 1.2 1.2 1.2 1.2 1.2 1 1.2 1.2 1.2 1.2 1.2 1.2 1.2 1.2 1.2 1.2 1 1 1 1 1 1.2 1.2 1.2 1.2 1.2 1.2 1.2 1.2 1.2 1.2 1.2 1.2 1.2 1.2 1.2 1.2 1.2 1.2 1.2 1.2 1 1 1 1 1 1 1 1 1 1 </DataArray>
</PointData>
<CellData/>
</Piece>
</UnstructuredGrid>
</VTKFile>
