<?xml version="1.0" ?>
<VTKFile byte_order="LittleEndian" type="UnstructuredGrid" version="0.1">
<UnstructuredGrid>
<Piece NumberOfCells="0" NumberOfPoints="53">
<Points>
<DataArray NumberOfComponents="3" format="ascii" type="Float32">1.1683730833430892 1.1166999707253813 1.0938182757964512 3.2685803312656159 1 0.91512296216718425 1.1495178226246223 1.1210593515267651 4.1969754729165878 3.1618810228294456 1.1199832961993852 4.0168034326981958 6.597786473712536 1.1087737644093758 5.7661906821679558 7.2498914472472631 1.1372334748970501 7.4055400921627212 4.3282349420446273 1.1416516351718846 8.8745233933527121 7.5528997273667491 1 9.0 3.2391354647349382 4.1990157950769529 1.183663143155393 6.4564647401858828 1.127610585941438 2.5381548172116561 8.1091637456723724 4.6211027798654181 2.6907802985880975 1.1871007083672978 3.1002548580214384 4.5035186887707397 5.0410916760241689 3.0999825359938349 2.9246159669459337 8.8234280784576118 1.1535733046278664 2.7441999217398361 2.7941976150248391 1.165493431800056 5.7184877345953309 8.8055864096579342 3.2040689338541886 6.9466283129862347 1.1677118838991327 1.1511131118403413 7.3355186556173075 2.7154987423185606 1.1565761465385398 8.8737027296430124 5.2128973619284817 1 0.93207154667245073 7.209516107640245 1 4.18678357879178 3.3495298537780425 1 7.2069937171158536 9.0 2.7517168537908345 9.0 6.079358337191767 1 9.0 1.1244821310513406 1.1644918277255474 2.7607000417478296 7.1193580013792372 1.1278238545422012 1.1076714128212231 8.8092734765986389 3.137891200211933 1.1865840829896241 1.1143904048726931 1.1491509671703615 5.8044775024524791 2.7795285461193671 2.8740136512949936 2.8545952693030023 8.8539561112289338 1.133097234365041 5.8514412012828423 4.6102859053825096 3.1317539117025359 6.7242966399383981 6.9880358399491573 4.3995452808908766 5.9592483956836704 3.5309060305757303 3.3678938100343263 8.8266565753171431 5.3140230845907803 1.1422319061364672 7.3688204686802683 1.1848106390536917 3.0986502959578019 1.1759284541455863 5.310472847193787 1.1324619364672586 4.0842182985759772 8.8505931650876342 3.5107246908093748 4.616424078403111 1.1928109383724683 4.5486561501534588 2.8512929391805097 4.4102086153419355 1.1302725915645719 2.4646542831244695 7.2635742499903122 2.7301335498388446 3.3471300521318534 4.6018874490473483 1.1286661197726224 5.6948023822379579 8.8970581914371785 1.1403747928110477 7.5090814558217662 1.1459717651649357 3.3810203031582633 6.6473600754867777 1.1054556924662313 1.1144809318558633 8.9000000000000004 2.7172866864021943 1 2.3262563037807569 6.2570135708602495 4.434836461010879 3.9593569452653297 3.968030562193539 2.8226754038641917 4.6490085176387419 9.0 1 9.0 5.4544142489287468 2.7024948940198019 9.0 4.3440113180393674 2.5473101229017718 0.97331835595905747 7.5052372027389911 2.5240116340501313 5.4425867534685208 2.7423505574063016 2.5589880485105732 7.2396547140331347 7.2159868870294694 2.721328345683121 9.0 6.6152106039097474 2.8521178217309489 7.1777925419074329 </DataArray>
</Points>
<Cells>
<DataArray Name="connectivity" format="ascii" type="Int32">0</DataArray>
<DataArray Name="offsets" format="ascii" type="Int32">0</DataArray>
<DataArray Name="types" format="ascii" type="UInt8">1</DataArray>
</Cells>
<PointData>
<DataArray Name="Points" NumberOfComponents="3" format="ascii" type="Float32">1.1683730833430892 1.1166999707253813 1.0938182757964512 3.2685803312656159 1 0.91512296216718425 1.1495178226246223 1.1210593515267651 4.1969754729165878 3.1618810228294456 1.1199832961993852 4.0168034326981958 6.597786473712536 1.1087737644093758 5.7661906821679558 7.2498914472472631 1.1372334748970501 7.4055400921627212 4.3282349420446273 1.1416516351718846 8.8745233933527121 7.5528997273667491 1 9.0 3.2391354647349382 4.1990157950769529 1.183663143155393 6.4564647401858828 1.127610585941438 2.5381548172116561 8.1091637456723724 4.6211027798654181 2.6907802985880975 1.1871007083672978 3.1002548580214384 4.5035186887707397 5.0410916760241689 3.0999825359938349 2.9246159669459337 8.8234280784576118 1.1535733046278664 2.7441999217398361 2.7941976150248391 1.165493431800056 5.7184877345953309 8.8055864096579342 3.2040689338541886 6.9466283129862347 1.1677118838991327 1.1511131118403413 7.3355186556173075 2.7154987423185606 1.1565761465385398 8.8737027296430124 5.2128973619284817 1 0.93207154667245073 7.209516107640245 1 4.18678357879178 3.3495298537780425 1 7.2069937171158536 9.0 2.7517168537908345 9.0 6.079358337191767 1 9.0 1.1244821310513406 1.1644918277255474 2.7607000417478296 7.1193580013792372 1.1278238545422012 1.1076714128212231 8.8092734765986389 3.137891200211933 1.1865840829896241 1.1143904048726931 1.1491509671703615 5.8044775024524791 2.7795285461193671 2.8740136512949936 2.8545952693030023 8.8539561112289338 1.133097234365041 5.8514412012828423 4.6102859053825096 3.1317539117025359 6.7242966399383981 6.9880358399491573 4.3995452808908766 5.9592483956836704 3.5309060305757303 3.3678938100343263 8.8266565753171431 5.3140230845907803 1.1422319061364672 7.3688204686802683 1.1848106390536917 3.0986502959578019 1.1759284541455863 5.310472847193787 1.1324619364672586 4.0842182985759772 8.8505931650876342 3.5107246908093748 4.616424078403111 1.1928109383724683 4.5486561501534588 2.8512929391805097 4.4102086153419355 1.1302725915645719 2.4646542831244695 7.2635742499903122 2.7301335498388446 3.3471300521318534 4.6018874490473483 1.1286661197726224 5.6948023822379579 8.8970581914371785 1.1403747928110477 7.5090814558217662 1.1459717651649357 3.3810203031582633 6.6473600754867777 1.1054556924662313 1.1144809318558633 8.9000000000000004 2.7172866864021943 1 2.3262563037807569 6.2570135708602495 4.434836461010879 3.9593569452653297 3.968030562193539 2.8226754038641917 4.6490085176387419 9.0 1 9.0 5.4544142489287468 2.7024948940198019 9.0 4.3440113180393674 2.5473101229017718 0.97331835595905747 7.5052372027389911 2.5240116340501313 5.4425867534685208 2.7423505574063016 2.5589880485105732 7.2396547140331347 7.2159868870294694 2.721328345683121 9.0 6.6152106039097474 2.8521178217309489 7.1777925419074329 </DataArray>
<DataArray Name="forces" NumberOfComponents="3" format="ascii" type="Float32">-0.29587878068437934 -0.44071695918825488 -0.99336016308900299 -0.00038168386875246652 -0.12923389695597837 -0.79404877606328528 -0.47227509561402559 -0.39993371464865485 -6.0044642325784991e-05 -9.7517527007290328e-05 -0.41000051760854705 0.0007700559111151889 0.00015147972321736402 -0.51486886864162396 -0.00035623031749078965 0.00015439309940898371 -0.24862020048751454 0.00014040878577970678 -0.00012320747554464551 -0.20728705729283803 0.69718749370544275 6.7718904109899392e-05 -0.32360264252558557 0.68970013158891508 -0.00031358729646596695 0.33900184951564 -0.15283593199532983 -0.00042274382228885132 -0.33864505753362678 0.00043167384121084451 0.015431976768737518 0.34085535605740735 0.0027228810759975103 -0.12067653389607962 0.33846837005936686 -0.00079982682318829879 0.0013644495503713217 0.33707932896074355 -0.00085398988795082342 0.21917632259297445 -0.095756456298024706 -0.00073306130758599847 3.9479154730509038e-05 0.01575971619423068 0.0005732636342450359 0.052262447709453028 0.33743917819882385 0.0012647526275483545 -0.30206448912346956 -0.11877225800003488 -9.0963711883130897e-05 -0.00011628715632031267 -0.067664018051317637 0.68950995180617947 -0.00033502562912185452 -0.27762120849175242 -0.63548995820113774 -0.00028928708420291059 -0.44828539019787256 -0.0015443827992793432 0.00066407053411729478 -0.50271240267950967 9.0969921850593029e-05 0.22418079185227127 0.23482728174943793 0.086877851283568563 -2.2999729645159506e-05 -0.27528190053435442 0.57227798736405622 -0.7064910951263953 0.0063894258333650616 -8.4551632106300012e-06 -0.00045003624014328114 -0.33664986925028501 -0.86376013485964498 0.086756005287368848 0.3377346403408551 -0.12550971091661867 -0.80090205744467236 -0.13712867822202021 -0.00038578784647012171 0.0007750496162441077 0.33856657267090923 -9.1811710406494718e-05 0.5047747326769213 -0.28731590448244643 -0.00042573475843561692 0.0018710383142730297 0.33925895900680231 7.9244078999674006e-05 0.0065186679923278645 0.33869928565586505 -0.0064583169847103883 6.3136506344568799e-05 0.33888666340623896 0.24937982692454599 0.0010238133110539241 -0.20185845774487246 8.4054010067920529e-05 -0.14210078222047079 0.33833252050809337 -0.22519614269877791 -0.00016353512834494863 -0.29325929660651179 0.00034558288768240554 0.47331341715922143 0.33831318141077926 0.0040225254143317069 -0.067255711699423917 0.33852798009553098 -0.00052380416022104748 -0.00037428180543015895 -0.31374123948231092 3.2337674845950293e-06 0.0037465702546469245 0.34131580212947349 -0.0029956142453904655 0.00045485093664233978 -0.32877023899440805 0.00015177071040355095 0.90800692490483526 -0.21923227993179634 -0.00018631125187484887 -0.50544946948014025 0.33841401448831587 -0.00023705028004100681 -0.88448882757681102 -0.46147669755057108 0.93552837886183271 -0.0001103698663131869 -0.4578159738779799 0.00066007075680505484 -0.00073123732864938118 0.23607623713648579 -0.0037383239229981102 0.0022013498630943928 0.23571664640501283 -0.00080265672305272762 0.64284479845118381 -0.33820374706563172 0.67054887576074107 -0.00056672927189355127 0.23505722773143919 0.12365109973158438 -0.00054800654021152067 0.23517986174774902 -0.24961435194991444 0.00027821592203420079 0.23345847382954654 -0.001887204724167358 0.00088284061805815606 0.23498696649381065 0.00063009527294774492 -0.00063171084474344941 0.23507687895896512 0.072956109935756408 0.0028796239785600156 0.23629601155757854 -0.0025076122767740266 </DataArray>
<DataArray Name="radii" format="ascii" type="Float32">1.2 1 1.2 1.2 1.2 1.2 1.2 1 1.2 1.2 1.2 1.2 1.2 1.2 1.2 1.2 1.2 1.2 1 1 1 1 1 1.2 1.2 1.2 1.2 1.2 1.2 1.2 1.2 1.2 1.2 1.2 1.2 1.2 1.2 1.2 1.2 1.2 1.2 1.2 1.2 1 1 1 1 1 1 1 1 1 1 </DataArray>
</PointData>
<CellData/>
</Piece>
</UnstructuredGrid>
</VTKFile>
