<?xml version="1.0" ?>
<VTKFile byte_order="LittleEndian" type="UnstructuredGrid" version="0.1">
<UnstructuredGrid>
<Piece NumberOfCells="0" NumberOfPoints="53">
<Points>
<DataArray NumberOfComponents="3" format="ascii" type="Float32">1.1429812063927289 1.1166285782370493 1.1031100176151607 3.6549356497977206 1 0.91637243264049684 1.1414928970478582 1.1526947826415597 4.3209400530792443 3.1427384470966255 1.1250709599360011 3.4969630428765623 6.1498585042902603 1.1431807057769992 5.9631584152606791 7.1381897622528259 1.1324916197142547 7.4588049043822462 4.7052202624705775 1.1451749383683205 8.8843360644639002 7.9965479471521439 1 9.0 3.2509504579402306 3.4803436126512359 1.1718430493284169 6.4820066116067823 1.1167434298885215 2.5477844735824218 7.7531115285756771 4.5940775359305723 2.4226054054502764 1.1545866313789157 3.3813053255035697 4.5794257472997275 4.9470003716122006 3.1634747397663356 2.8168475171784659 8.8287806388315389 1.1503044804826754 2.7774423969008213 2.9319772391117738 1.103497798214397 5.1908126616037471 8.8251363713503661 3.1242040854773432 6.4602323677300326 1.15219995975127 1.1574773428119169 7.4264294010660592 2.9035311511866229 1.1340522007959557 8.8495982757833183 5.438879268937816 1 0.93984212706392067 7.0232177749035918 1 4.2305341191535364 2.9254727649457766 1 6.937811008628195 9.0 3.5731364217147332 8.5214242479523978 6.3841091484466617 1 9.0 1.1330993495602433 1.1595278631608568 2.8126678629347936 7.2141592094468683 1.1321664712779509 1.1191456529136381 8.8172134533763238 3.0748883604255264 1.1899024132234906 1.1390735429833079 1.1544078528755179 5.9087566268158742 2.6611829130419422 2.9391919788450966 3.0858284429079386 8.1659270639602681 1.1323024529649852 5.6406803497978135 4.5997042028233102 3.0671276370216241 6.4164890381831183 6.7727056519099333 3.7604884724228249 6.7805609328978766 3.4780545985426605 3.1547086705990193 8.8261361236523399 4.6413084212653288 1.117618803216152 7.3019505297588951 1.1711771833059132 3.0073097743003614 1.1843576379804335 5.2995196492815051 1.137237012187146 4.0468568984346147 8.8327289291464979 3.4106776033948716 4.2220079699011794 1.1895977240416424 4.5904637227223688 2.6977453760427834 4.4525895971666873 1.1292944231429238 2.4898688885649887 7.2163147822955347 2.6580593573347007 3.1725943789490909 4.3701833675829258 1.1248909140021364 5.4618829260922848 8.8942508619772713 1.132594402317368 6.9771561153045791 1.1761280235259204 3.3418456375309806 6.6862026001418693 1.1321434483051203 1.1188430415289261 8.9000000000000004 2.6354482254930884 1 1.6968682741984182 6.5195084964675072 4.2429461513269544 4.3795312064915981 2.8328180007170518 2.6732583465175361 5.1626714077795883 9.0 1 8.555824828461942 5.8040367533797603 2.8368550371403392 9.0 4.6743707498116152 2.416673147377959 0.95376914993209916 7.0291630853137113 2.6479249722972122 5.1229074569206015 2.8680278399653005 2.4672527761463967 7.0444129675116196 7.6017191630592782 2.5826248753134466 9.0 6.0108663736708738 2.3535833039926799 7.6529062072745448 </DataArray>
</Points>
<Cells>
<DataArray Name="connectivity" format="ascii" type="Int32">0</DataArray>
<DataArray Name="offsets" format="ascii" type="Int32">0</DataArray>
<DataArray Name="types" format="ascii" type="UInt8">1</DataArray>
</Cells>
<PointData>
<DataArray Name="Points" NumberOfComponents="3" format="ascii" type="Float32">1.1429812063927289 1.1166285782370493 1.1031100176151607 3.6549356497977206 1 0.91637243264049684 1.1414928970478582 1.1526947826415597 4.3209400530792443 3.1427384470966255 1.1250709599360011 3.4969630428765623 6.1498585042902603 1.1431807057769992 5.9631584152606791 7.1381897622528259 1.1324916197142547 7.4588049043822462 4.7052202624705775 1.1451749383683205 8.8843360644639002 7.9965479471521439 1 9.0 3.2509504579402306 3.4803436126512359 1.1718430493284169 6.4820066116067823 1.1167434298885215 2.5477844735824218 7.7531115285756771 4.5940775359305723 2.4226054054502764 1.1545866313789157 3.3813053255035697 4.5794257472997275 4.9470003716122006 3.1634747397663356 2.8168475171784659 8.8287806388315389 1.1503044804826754 2.7774423969008213 2.9319772391117738 1.103497798214397 5.1908126616037471 8.8251363713503661 3.1242040854773432 6.4602323677300326 1.15219995975127 1.1574773428119169 7.4264294010660592 2.9035311511866229 1.1340522007959557 8.8495982757833183 5.438879268937816 1 0.93984212706392067 7.0232177749035918 1 4.2305341191535364 2.9254727649457766 1 6.937811008628195 9.0 3.5731364217147332 8.5214242479523978 6.3841091484466617 1 9.0 1.1330993495602433 1.1595278631608568 2.8126678629347936 7.2141592094468683 1.1321664712779509 1.1191456529136381 8.8172134533763238 3.0748883604255264 1.1899024132234906 1.1390735429833079 1.1544078528755179 5.9087566268158742 2.6611829130419422 2.9391919788450966 3.0858284429079386 8.1659270639602681 1.1323024529649852 5.6406803497978135 4.5997042028233102 3.0671276370216241 6.4164890381831183 6.7727056519099333 3.7604884724228249 6.7805609328978766 3.4780545985426605 3.1547086705990193 8.8261361236523399 4.6413084212653288 1.117618803216152 7.3019505297588951 1.1711771833059132 3.0073097743003614 1.1843576379804335 5.2995196492815051 1.137237012187146 4.0468568984346147 8.8327289291464979 3.4106776033948716 4.2220079699011794 1.1895977240416424 4.5904637227223688 2.6977453760427834 4.4525895971666873 1.1292944231429238 2.4898688885649887 7.2163147822955347 2.6580593573347007 3.1725943789490909 4.3701833675829258 1.1248909140021364 5.4618829260922848 8.8942508619772713 1.132594402317368 6.9771561153045791 1.1761280235259204 3.3418456375309806 6.6862026001418693 1.1321434483051203 1.1188430415289261 8.9000000000000004 2.6354482254930884 1 1.6968682741984182 6.5195084964675072 4.2429461513269544 4.3795312064915981 2.8328180007170518 2.6732583465175361 5.1626714077795883 9.0 1 8.555824828461942 5.8040367533797603 2.8368550371403392 9.0 4.6743707498116152 2.416673147377959 0.95376914993209916 7.0291630853137113 2.6479249722972122 5.1229074569206015 2.8680278399653005 2.4672527761463967 7.0444129675116196 7.6017191630592782 2.5826248753134466 9.0 6.0108663736708738 2.3535833039926799 7.6529062072745448 </DataArray>
<DataArray Name="forces" NumberOfComponents="3" format="ascii" type="Float32">-0.58567238568034719 -0.48461537175748387 -0.99521199137786265 0.03355217569017549 -0.24785252137573627 -0.85898620061015063 -0.60095965553464314 -0.11415891977581541 -0.038054371628639783 0.043634063090649038 -0.39789887851658362 0.060355410694276274 0.0040176924265557558 -0.21188340221914237 -0.041888504205241303 -0.019941738705651191 -0.32167707092124165 -0.0018229568976080718 0.0028535041526369237 -0.19139950760353078 0.86626357642130913 -0.14371041082329622 -0.40283130354281493 0.74880814119172656 0.013964492475007029 0.39814067657120417 -0.28921601861473001 0.013402057493929975 -0.48343566527017484 -0.022124777335752355 0.021549850612214358 0.40044702158766166 0.046161234775659241 -0.46646647989935297 0.29863891129814385 -0.052480412523819922 0.0070467331022503257 0.39944418542202031 0.020450016986702346 0.2956222736308779 -0.13871106967805635 0.018681584886621257 -0.1038346969355612 -0.61948906471351983 0.12175124863072755 0.2581899343138454 0.35677439119276133 -0.0032099766775334354 -0.49098133855501913 -0.065034530299505428 -0.0074709843714510175 0.0053853859435921787 -0.30564745704581064 0.50945203617817492 0.035578529916736212 -0.43897571911983496 -0.61791565080457678 0.02894807899995203 -0.4848344886942354 -0.037018620429312546 -0.01026587770114536 -0.70461559302788346 0.033353670162557324 0.17822553206757946 0.14033185276381793 0.01991501533495052 -0.071524272477840115 -0.22837794885385876 0.52218455195463487 -0.68717454487887797 -0.043972472183697736 -0.003049754966330448 0.023959143363370072 -0.32501685502298777 -0.83050088146126066 0.17680914777233125 0.39854322517513802 -0.10371804387419352 -0.62581021404610848 -0.096563003284303145 -0.0030592559415300868 0.017047965365621566 0.34472472259852854 -0.029847480855096462 0.015523317693857092 -0.32362010994972507 0.03647459830510541 -0.036926346576555968 0.41488140831124765 0.0061970420930397285 0.0086012805468223541 0.49667424669319837 0.0083742738397561134 0.086045042471950828 0.40750664375865586 0.26845895753834442 -0.017797637262689459 -0.47444420907266932 -0.021394365450336447 -0.29605550639185135 0.36659290341242479 -0.16067157689753175 0.010388558489067778 -0.27293445195721228 -0.029046604644570095 0.33617740399803453 0.35882266813573543 0.0053475102303720753 -0.10684767936338106 0.3684013356181392 -0.015653979614447755 0.017730453015331129 -0.35451729122329811 -0.049112170663172861 -0.01087240471108775 0.38596426739257911 0.010732886431780914 0.0027474925599776795 -0.39974823247424274 -0.004775240643010094 0.96810408804612635 -0.32062133247846741 0.15148610709044219 -0.24520261703145521 0.39257825002100455 -0.03918847264821803 -0.6969931491169612 -0.46186936264182266 1.0271567471495247 0.0091390401025834844 -0.18281915018978695 0.032195355523153488 -0.015828702246587181 0.27301301575173353 -0.031733573340841738 0.15384588197715535 0.34926252546853992 -0.0083960877547603202 0.93205679911208239 -0.079585870820091595 0.22897643183591532 -0.054756861770890633 0.28083607017716583 0.67766535573218356 0.051758451045554321 0.30572047328278662 -0.47486329573702357 0.016394818265598746 0.28089514318997644 0.043437713362532701 -0.024505798043532215 0.29720213991565242 0.053322285203409418 -0.05904998434213718 0.26136373842412436 0.11531858119415339 -0.012385096601010018 0.28605670951617812 -0.055065869510141419 </DataArray>
<DataArray Name="radii" format="ascii" type="Float32">1.2 1 1.2 1.2 1.2 1.2 1.2 1 1.2 1.2 1.2 1.2 1.2 1.2 1.2 1.2 1.2 1.2 1 1 1 1 1 1.2 1.2 1.2 1.2 1.2 1.2 1.2 1.2 1.2 1.2 1.2 1.2 1.2 1.2 1.2 1.2 1.2 1.2 1.2 1.2 1 1 1 1 1 1 1 1 1 1 </DataArray>
</PointData>
<CellData/>
</Piece>
</UnstructuredGrid>
</VTKFile>
