<?xml version="1.0" ?>
<VTKFile byte_order="LittleEndian" type="UnstructuredGrid" version="0.1">
<UnstructuredGrid>
<Piece NumberOfCells="0" NumberOfPoints="53">
<Points>
<DataArray NumberOfComponents="3" format="ascii" type="Float32">1.1708795150755327 1.1187767102688833 1.0943627721733677 3.3235831966961458 1 0.91339114842721514 1.1515058386019172 1.1251689478417202 4.1955086765460674 3.2138517229696393 1.1189379288481751 3.93337181703011 6.550541982932276 1.1211605284682349 5.8132499302077019 7.2456082358965785 1.138322479970953 7.3931027186527389 4.3260065568767274 1.1403081303111131 8.8732472154640298 7.5552762568085461 1 9.0 3.2926019584172783 4.0831361254067273 1.1825675638859334 6.5289536319872736 1.1168521350709701 2.5314142434150817 7.8126738624036474 4.534576690766368 2.5723731226673401 1.1934919803155328 3.1161976151197952 4.5762966977680106 4.969935054933182 3.1728607921706367 2.986930757587233 8.8266102506898534 1.1560103486190534 2.7470761701024999 2.7573868214987569 1.1643206913203454 5.6650494663040405 8.8100092729883137 3.2020658055775848 6.8826523340100891 1.1644965353872343 1.1500658349525432 7.3504455756121265 2.7261299021463699 1.1567085572480154 8.8707174424904576 5.2665453863012646 1 0.9331789301485971 7.2589444374179912 1 4.2958088934960248 3.3058339084822959 1 7.1790891030545723 9.0 2.7638659652167457 8.9924199807205962 6.0802655543169246 1 9.0 1.1261408101006409 1.1596558749852801 2.7679549104579255 7.1359657497817652 1.1298522440073451 1.1046213156626088 8.8140537550678442 3.1293734619165274 1.1867819940914177 1.113068172262053 1.1477789757519163 5.8386126626656063 2.7121883678287464 2.8656910948591503 2.8741577157175171 8.8380084967517849 1.1431390594283297 5.8134560027921971 4.5278843112372043 3.087021506878056 6.7105193012308053 6.8068138248686889 4.4186009857713415 6.4232619439752394 3.5262323333483048 3.3567093047608871 8.8255258520270274 5.2302284315868057 1.1284669495256596 7.3490585181608026 1.1820662133185635 3.1100968360948742 1.1749955221850625 5.3936351860061791 1.1323467238733373 4.0468192705834101 8.8456705807689886 3.4633901451331419 4.4528084955666349 1.1901110726042983 4.5451180486882681 2.8870259509749414 4.4694735535628496 1.1349831646626198 2.4613039650259112 7.1560292593567798 2.6502017231104675 3.373893537852291 4.5342502288097473 1.1236257558738003 5.6216362830193409 8.8947024890887967 1.1427376336795438 7.4957102767619652 1.1439995067223045 3.3761739365060439 6.6726201111722991 1.1081102252274804 1.1140011879127754 8.9000000000000004 2.7289522198606928 1 2.2510239315656566 6.5473177944759646 4.3099538360822631 4.3257017589953319 3.7298966006791856 2.9007240519733895 4.7241635004394817 9.0 1 9.0 5.4616477907048937 2.6785351035888003 9.0 4.4351844961406446 2.5172628635432419 0.9740873727302598 7.4022591430159368 2.6573658057748353 5.4682109013890834 2.717655751693822 2.5565034335595662 7.2059891484015717 7.2397457274062269 2.7189869374597637 9.0 6.4399345949192979 2.7874564929572885 7.3278331557482366 </DataArray>
</Points>
<Cells>
<DataArray Name="connectivity" format="ascii" type="Int32">0</DataArray>
<DataArray Name="offsets" format="ascii" type="Int32">0</DataArray>
<DataArray Name="types" format="ascii" type="UInt8">1</DataArray>
</Cells>
<PointData>
<DataArray Name="Points" NumberOfComponents="3" format="ascii" type="Float32">1.1708795150755327 1.1187767102688833 1.0943627721733677 3.3235831966961458 1 0.91339114842721514 1.1515058386019172 1.1251689478417202 4.1955086765460674 3.2138517229696393 1.1189379288481751 3.93337181703011 6.550541982932276 1.1211605284682349 5.8132499302077019 7.2456082358965785 1.138322479970953 7.3931027186527389 4.3260065568767274 1.1403081303111131 8.8732472154640298 7.5552762568085461 1 9.0 3.2926019584172783 4.0831361254067273 1.1825675638859334 6.5289536319872736 1.1168521350709701 2.5314142434150817 7.8126738624036474 4.534576690766368 2.5723731226673401 1.1934919803155328 3.1161976151197952 4.5762966977680106 4.969935054933182 3.1728607921706367 2.986930757587233 8.8266102506898534 1.1560103486190534 2.7470761701024999 2.7573868214987569 1.1643206913203454 5.6650494663040405 8.8100092729883137 3.2020658055775848 6.8826523340100891 1.1644965353872343 1.1500658349525432 7.3504455756121265 2.7261299021463699 1.1567085572480154 8.8707174424904576 5.2665453863012646 1 0.9331789301485971 7.2589444374179912 1 4.2958088934960248 3.3058339084822959 1 7.1790891030545723 9.0 2.7638659652167457 8.9924199807205962 6.0802655543169246 1 9.0 1.1261408101006409 1.1596558749852801 2.7679549104579255 7.1359657497817652 1.1298522440073451 1.1046213156626088 8.8140537550678442 3.1293734619165274 1.1867819940914177 1.113068172262053 1.1477789757519163 5.8386126626656063 2.7121883678287464 2.8656910948591503 2.8741577157175171 8.8380084967517849 1.1431390594283297 5.8134560027921971 4.5278843112372043 3.087021506878056 6.7105193012308053 6.8068138248686889 4.4186009857713415 6.4232619439752394 3.5262323333483048 3.3567093047608871 8.8255258520270274 5.2302284315868057 1.1284669495256596 7.3490585181608026 1.1820662133185635 3.1100968360948742 1.1749955221850625 5.3936351860061791 1.1323467238733373 4.0468192705834101 8.8456705807689886 3.4633901451331419 4.4528084955666349 1.1901110726042983 4.5451180486882681 2.8870259509749414 4.4694735535628496 1.1349831646626198 2.4613039650259112 7.1560292593567798 2.6502017231104675 3.373893537852291 4.5342502288097473 1.1236257558738003 5.6216362830193409 8.8947024890887967 1.1427376336795438 7.4957102767619652 1.1439995067223045 3.3761739365060439 6.6726201111722991 1.1081102252274804 1.1140011879127754 8.9000000000000004 2.7289522198606928 1 2.2510239315656566 6.5473177944759646 4.3099538360822631 4.3257017589953319 3.7298966006791856 2.9007240519733895 4.7241635004394817 9.0 1 9.0 5.4616477907048937 2.6785351035888003 9.0 4.4351844961406446 2.5172628635432419 0.9740873727302598 7.4022591430159368 2.6573658057748353 5.4682109013890834 2.717655751693822 2.5565034335595662 7.2059891484015717 7.2397457274062269 2.7189869374597637 9.0 6.4399345949192979 2.7874564929572885 7.3278331557482366 </DataArray>
<DataArray Name="forces" NumberOfComponents="3" format="ascii" type="Float32">-0.27685047135160745 -0.42812370299340652 -1.0043004569442395 -0.013615145616741792 -0.12572838637378156 -0.82339636319039011 -0.46103735826115333 -0.36735225672039301 -0.0010016055788992784 -0.0027786359215161566 -0.42659098677032925 0.012280812542046868 0.0093721227247069785 -0.40546057791774892 -0.0049771739702515732 0.0038657614608626767 -0.24230071381641621 0.001985077819157818 -0.0018494695748517975 -0.2234229982138537 0.69636636130915575 -0.0010035737630724392 -0.3280314805133373 0.67158838049274439 -0.0091589052541649063 0.37352763680307532 -0.16573138007503174 -0.0046668930494353222 -0.44642077297956595 -0.00032265398811415213 0.0059732339957207763 0.34097093614864604 0.001272933973384769 -0.061872194844408361 0.3439575690861198 -0.005579819101131589 0.0080454634258589758 0.34369046794802982 0.00030007585021895808 0.25298550025451161 -0.074140918911438647 -0.0014485579938566459 0.0050546235725367154 0.0048660859483255631 0.0080494233359338502 0.095158853016667821 0.34307213725106672 0.029237512250327585 -0.33753390227374802 -0.13065582293168973 -0.0024848163314309668 -0.0025443890467021038 -0.067503001015111197 0.67231563406464134 -0.012629938293276299 -0.32343411140647571 -0.63527254894839391 0.00037827460598937809 -0.46287907515878346 -0.0047332722662911664 0.0084364851533365592 -0.50624553121309179 0.0026532888207851778 0.24246969369782329 0.23447161618381085 0.032476713353335782 0.00068761670603788294 -0.28932880846169684 0.51213064118468643 -0.7021844447413349 -0.039482646721521616 -0.001742219318334487 -0.0054214704866243357 -0.32282783501878043 -0.9067717719740559 0.13361002486339912 0.34230733258230328 -0.12566449959920337 -0.82646692000949384 -0.15239715207680707 -0.0057251783513452385 0.0090352803554771058 0.34694973376298138 -0.0044917392791933575 0.36134941668695714 -0.19650915860928314 0.0025641507912180089 0.0014784546380921526 0.341188260044335 0.0059950177872101704 0.020501738092244995 0.36432026182111621 -0.013955183412920513 0.0021115914871988606 0.3457353976507902 0.24267604690182132 0.013475994479273709 -0.33599792580573562 0.0048485877365940146 -0.17049775471641368 0.34531495050328709 -0.23771930608030228 -0.0037801695770778854 -0.29911264179764013 0.001658089526522244 0.43419338124318974 0.34816274448011475 0.0087469069661272325 -0.094014719114843923 0.34526721158151652 -0.001144214060302795 -0.0044668098432132722 -0.27404781622565344 -0.00038251573636780001 0.0017369724358979616 0.34563022080981987 0.010657750383993497 0.010859627517416391 -0.38202348986822077 0.007832075997534417 0.90034313681276645 -0.20032554106487455 0.0049275909053491107 -0.53240057643498062 0.34461309776133314 -0.0024117944336431441 -0.87360246658497176 -0.47352492548911251 0.95070694073159379 0.0010507201494664997 -0.42560061574491231 0.018070123820408977 -0.021278664619890121 0.25118923096536283 -0.01574800154381148 0.019338547293606061 0.23094183506275562 -0.0039062317167394139 0.64274587520153026 -0.32298937918032128 0.65879919316641489 0.0032996529953486439 0.23755477060220767 0.1861089950194949 -0.022806078954764816 0.24641864870557481 -0.24635314597932773 0.0086911177644737585 0.24490843668572415 0.018706016639201586 -0.0035969510549774819 0.23953034806461376 0.0071478311206353146 -0.00071627107009367141 0.24185552561890858 0.13288159665858998 0.015224182626540295 0.24609399969209275 -0.01474313600374616 </DataArray>
<DataArray Name="radii" format="ascii" type="Float32">1.2 1 1.2 1.2 1.2 1.2 1.2 1 1.2 1.2 1.2 1.2 1.2 1.2 1.2 1.2 1.2 1.2 1 1 1 1 1 1.2 1.2 1.2 1.2 1.2 1.2 1.2 1.2 1.2 1.2 1.2 1.2 1.2 1.2 1.2 1.2 1.2 1.2 1.2 1.2 1 1 1 1 1 1 1 1 1 1 </DataArray>
</PointData>
<CellData/>
</Piece>
</UnstructuredGrid>
</VTKFile>
