<?xml version="1.0" ?>
<VTKFile byte_order="LittleEndian" type="UnstructuredGrid" version="0.1">
<UnstructuredGrid>
<Piece NumberOfCells="0" NumberOfPoints="19">
<Points>
<DataArray NumberOfComponents="3" format="ascii" type="Float32">5.8133691683116187 1 2 4.4595087460528013 8.3903825234793743 2 7.4916472320912488 1 2 9.0 1 2 8.8 6.9421593011043958 2 2.6459912844401572 8.7115574041534103 2 9.0 2.8158921115895525 2 6.9892486738291009 2.5662198963355238 2 8.8 10.852896198190214 2 2.9471876964529899 6.929725703300484 2 8.8 4.8101638640579463 2 6.8876327072706163 5.8451461653282042 2 6.8019092314063956 11.011556221950434 2 6.4926567207606007 7.6347061999415624 2 9.0 8.8079550854385324 2 5.1852465011273194 4.3732666913498672 2 7.5351974626106939 9.1824967434800833 2 7.2167776903350003 4.0692181127705247 2 4.8069076452890274 6.3464795373284515 2 </DataArray>
</Points>
<Cells>
<DataArray Name="connectivity" format="ascii" type="Int32">0</DataArray>
<DataArray Name="offsets" format="ascii" type="Int32">0</DataArray>
<DataArray Name="types" format="ascii" type="UInt8">1</DataArray>
</Cells>
<PointData>
<DataArray Name="Points" NumberOfComponents="3" format="ascii" type="Float32">5.8133691683116187 1 2 4.4595087460528013 8.3903825234793743 2 7.4916472320912488 1 2 9.0 1 2 8.8 6.9421593011043958 2 2.6459912844401572 8.7115574041534103 2 9.0 2.8158921115895525 2 6.9892486738291009 2.5662198963355238 2 8.8 10.852896198190214 2 2.9471876964529899 6.929725703300484 2 8.8 4.8101638640579463 2 6.8876327072706163 5.8451461653282042 2 6.8019092314063956 11.011556221950434 2 6.4926567207606007 7.6347061999415624 2 9.0 8.8079550854385324 2 5.1852465011273194 4.3732666913498672 2 7.5351974626106939 9.1824967434800833 2 7.2167776903350003 4.0692181127705247 2 4.8069076452890274 6.3464795373284515 2 </DataArray>
<DataArray Name="forces" NumberOfComponents="3" format="ascii" type="Float32">0.010216932278756863 -0.56412928694773257 0.0 -0.0026963218113398996 0.074031749757475063 0.0 0.0001710949085212965 -0.52585066033323413 0.0 0.49161862657883848 -0.18342636035925874 0.0 0.13073510295423726 0.043247557690153926 0.0 -0.0051217382207744289 0.067065026327404104 0.0 0.1828375608264512 0.010956015123119445 0.0 0.053316438557256762 0.030681281273109651 0.0 0.31547273252734137 0.091474123992474066 0.0 -0.00094567082080446174 0.064225103737671513 0.0 0.59811866352476084 0.010144074870911651 0.0 0.0077910932842254477 0.078125519380031039 0.0 -0.0061684489127275602 0.067458286373986848 0.0 -0.00014122509294832442 0.067361353209532626 0.0 0.5227299557560191 0.057360334887913075 0.0 -0.048550201305133892 0.077439205617673479 0.0 0.0038723661982733026 0.074718386510935528 0.0 -0.089408426467392388 0.072875903474116835 0.0 0.0015528305440852819 0.072426243580050342 0.0 </DataArray>
<DataArray Name="radii" format="ascii" type="Float32">1 1.2 1 1 1.2 1 1 1.2 1.2 1 1.2 1.2 1 1 1 1.2 1 1 1.2 </DataArray>
</PointData>
<CellData/>
</Piece>
</UnstructuredGrid>
</VTKFile>
