<?xml version="1.0" ?>
<VTKFile byte_order="LittleEndian" type="UnstructuredGrid" version="0.1">
<UnstructuredGrid>
<Piece NumberOfCells="0" NumberOfPoints="39">
<Points>
<DataArray NumberOfComponents="3" format="ascii" type="Float32">6.3279151925907087 1 2 5.0571656780109615 10.126815426114458 2 7.8759806741052394 1 2 9.0 1 2 8.4 8.8385484669150394 2 3.0847156561761961 9.197658253659208 2 9.0 2.2875689095405911 2 8.4 1.5999999999999999 2 8.4 11.268303691065762 2 3.7522271286035229 8.1338548866319726 2 8.4 6.0240240663924469 2 8.4 6.995755885977295 2 6.3722329169534202 14.029107045395879 2 6.4813745121008575 10.192142510298579 2 9.0 10.047811442967113 2 5.2865764190208937 6.9585124158480616 2 7.25808173308479 10.536087820865776 2 6.4377644018033875 4.2181208874565828 2 5.580187013718958 7.8660729691304798 2 3.3814765697066118 11.407379426255916 2 8.1311368697203363 10.050707920142843 2 9.0 3.8354778503890019 2 8.4 13.875769237828026 2 7.5075779355733765 4.0100004080772171 2 6.7384310096071047 8.1026419618226306 2 6.22230756709628 5.1111663014074695 2 6.5803882617220051 5.7240271259372255 2 4.9452804339086986 8.7730353407990229 2 7.3110343496896784 9.2241396217596847 2 8.4 3.08864220424827 2 8.4 12.399718935052842 2 8.4 4.7023964465372865 2 8.4 7.955757282811347 2 6.4041250598487105 6.3997655852512372 2 6.3912239133876732 9.2603791272355451 2 4.0667804936320016 9.8097706441439065 2 7.1285367656139851 13.322104883326217 2 8.0978440997691052 5.3998631940504955 2 7.0661630568166443 6.9746122667389772 2 </DataArray>
</Points>
<Cells>
<DataArray Name="connectivity" format="ascii" type="Int32">0</DataArray>
<DataArray Name="offsets" format="ascii" type="Int32">0</DataArray>
<DataArray Name="types" format="ascii" type="UInt8">1</DataArray>
</Cells>
<PointData>
<DataArray Name="Points" NumberOfComponents="3" format="ascii" type="Float32">6.3279151925907087 1 2 5.0571656780109615 10.126815426114458 2 7.8759806741052394 1 2 9.0 1 2 8.4 8.8385484669150394 2 3.0847156561761961 9.197658253659208 2 9.0 2.2875689095405911 2 8.4 1.5999999999999999 2 8.4 11.268303691065762 2 3.7522271286035229 8.1338548866319726 2 8.4 6.0240240663924469 2 8.4 6.995755885977295 2 6.3722329169534202 14.029107045395879 2 6.4813745121008575 10.192142510298579 2 9.0 10.047811442967113 2 5.2865764190208937 6.9585124158480616 2 7.25808173308479 10.536087820865776 2 6.4377644018033875 4.2181208874565828 2 5.580187013718958 7.8660729691304798 2 3.3814765697066118 11.407379426255916 2 8.1311368697203363 10.050707920142843 2 9.0 3.8354778503890019 2 8.4 13.875769237828026 2 7.5075779355733765 4.0100004080772171 2 6.7384310096071047 8.1026419618226306 2 6.22230756709628 5.1111663014074695 2 6.5803882617220051 5.7240271259372255 2 4.9452804339086986 8.7730353407990229 2 7.3110343496896784 9.2241396217596847 2 8.4 3.08864220424827 2 8.4 12.399718935052842 2 8.4 4.7023964465372865 2 8.4 7.955757282811347 2 6.4041250598487105 6.3997655852512372 2 6.3912239133876732 9.2603791272355451 2 4.0667804936320016 9.8097706441439065 2 7.1285367656139851 13.322104883326217 2 8.0978440997691052 5.3998631940504955 2 7.0661630568166443 6.9746122667389772 2 </DataArray>
<DataArray Name="forces" NumberOfComponents="3" format="ascii" type="Float32">-0.037320567231545247 -4.2925649545509765 0.0 -0.025766308266129023 0.53847994608475835 0.0 0.0080930232305087418 -4.1318548955645351 0.0 3.1002295441249377 -2.897513421404696 0.0 3.8105859550035008 0.52024055740819275 0.0 0.2121509340677572 0.15337584884800901 0.0 4.1223361347969094 0.10654192632354023 0.0 3.6917707849804833 -3.0560374633346439 0.0 3.6502602008793876 0.68778057085681921 0.0 -0.09888868753361027 0.20396348797356609 0.0 4.1321000010670579 0.86869564047127501 0.0 3.7993551079951127 0.70293388054497186 0.0 -0.021755056239410542 0.3747409781598412 0.0 -0.05477957284355689 0.32925092337847239 0.0 2.6751145131168985 0.24108203298356615 0.0 0.16631714803257747 0.60765079438474046 0.0 0.090753095815542084 0.13446713535939636 0.0 0.17298487181912162 0.17606753493071325 0.0 0.031323003971397645 0.62133593354664329 0.0 0.030964964754677027 0.4836873603600409 0.0 0.34315027655545649 0.28491003548284682 0.0 4.0380169145052962 0.05729522271038634 0.0 3.1649706693277722 0.50556662181966394 0.0 -0.066453590022274467 0.54378107741043191 0.0 0.16340066557551958 0.54303894838015598 0.0 0.23468638087004307 0.1684228719477126 0.0 0.27970935619430193 0.058940346811754196 0.0 0.072470847095663871 0.49141011663496337 0.0 0.044826092962998887 0.47447978112112055 0.0 3.655502494475761 0.55579813001318656 0.0 3.6249674715154749 0.67027394929844442 0.0 3.9290715630891104 0.25196348039231653 0.0 3.5329879409156608 0.58205523812220872 0.0 0.055854134910938491 -0.17228814925339742 0.0 0.12221660673649914 0.25553613813020259 0.0 0.019490611921912815 0.60262378816875162 0.0 -0.31750360445923831 0.21950251456562664 0.0 1.3413607133872087 0.50323565151093408 0.0 -0.1990341040935199 -0.010079199071842293 0.0 </DataArray>
<DataArray Name="radii" format="ascii" type="Float32">1 1.5999999999999999 1 1 1.5999999999999999 1 1 1.5999999999999999 1.5999999999999999 1 1.5999999999999999 1.5999999999999999 1 1 1 1.5999999999999999 1 1 1.5999999999999999 1.5999999999999999 1 1 1.5999999999999999 1.5999999999999999 1.5999999999999999 1 1 1.5999999999999999 1 1.5999999999999999 1.5999999999999999 1.5999999999999999 1.5999999999999999 1 1 1.5999999999999999 1 1.5999999999999999 1 </DataArray>
</PointData>
<CellData/>
</Piece>
</UnstructuredGrid>
</VTKFile>
