<?xml version="1.0" ?>
<VTKFile byte_order="LittleEndian" type="UnstructuredGrid" version="0.1">
<UnstructuredGrid>
<Piece NumberOfCells="0" NumberOfPoints="19">
<Points>
<DataArray NumberOfComponents="3" format="ascii" type="Float32">5.974306105268127 1 2 4.4136412224223358 8.9224699852862095 2 7.5416906446608261 1 2 9.0 1 2 8.4 7.2092973405203402 2 2.5685087548218468 8.619178197039437 2 9.0 2.5590708975958436 2 7.4484329599206536 2.5883151640603996 2 8.4 11.238793469102475 2 3.0415671368276582 7.1562188538867044 2 8.4 4.642337806608186 2 6.7251794765415092 6.0876285373345516 2 6.5603993405749437 11.541624640110257 2 6.3904617074690293 8.169330620447008 2 9.0 9.1766694607752193 2 4.8701026383538402 4.3645393637207031 2 7.5845010424303503 9.1786239920013912 2 6.5097631373799762 4.0434364839079668 2 4.7490940641986938 6.6776526618783718 2 </DataArray>
</Points>
<Cells>
<DataArray Name="connectivity" format="ascii" type="Int32">0</DataArray>
<DataArray Name="offsets" format="ascii" type="Int32">0</DataArray>
<DataArray Name="types" format="ascii" type="UInt8">1</DataArray>
</Cells>
<PointData>
<DataArray Name="Points" NumberOfComponents="3" format="ascii" type="Float32">5.974306105268127 1 2 4.4136412224223358 8.9224699852862095 2 7.5416906446608261 1 2 9.0 1 2 8.4 7.2092973405203402 2 2.5685087548218468 8.619178197039437 2 9.0 2.5590708975958436 2 7.4484329599206536 2.5883151640603996 2 8.4 11.238793469102475 2 3.0415671368276582 7.1562188538867044 2 8.4 4.642337806608186 2 6.7251794765415092 6.0876285373345516 2 6.5603993405749437 11.541624640110257 2 6.3904617074690293 8.169330620447008 2 9.0 9.1766694607752193 2 4.8701026383538402 4.3645393637207031 2 7.5845010424303503 9.1786239920013912 2 6.5097631373799762 4.0434364839079668 2 4.7490940641986938 6.6776526618783718 2 </DataArray>
<DataArray Name="forces" NumberOfComponents="3" format="ascii" type="Float32">0.10031374541806659 -1.4463915401006306 0.0 -0.011145948581569948 0.28150262566830342 0.0 0.054363986785165533 -1.0607503918251973 0.0 0.80652722380618558 -0.71272114314031854 0.0 1.3431884130766751 0.17853905856244795 0.0 -0.01085790536611031 0.037646825318643995 0.0 1.1693777431797727 0.0059468569417834849 0.0 -0.013275342073084229 0.23777233669650522 0.0 1.1899744686555958 0.22054902110364893 0.0 0.019211844901151909 0.083380243859434849 0.0 1.6122213326970538 0.17301576116836181 0.0 -0.017485113302619038 0.17319898579401932 0.0 -0.034124662317917193 0.1716068863325661 0.0 -0.016423854189155096 0.099821035009123649 0.0 0.86960602580267465 0.084410980676605796 0.0 -0.031825229761077239 0.15308464791168686 0.0 0.0098774413161931696 0.040896485541342849 0.0 -0.07934069488413209 0.028893807023629925 0.0 0.00968078327228869 0.22072733710724823 0.0 </DataArray>
<DataArray Name="radii" format="ascii" type="Float32">1 1.5999999999999999 1 1 1.5999999999999999 1 1 1.5999999999999999 1.5999999999999999 1 1.5999999999999999 1.5999999999999999 1 1 1 1.5999999999999999 1 1 1.5999999999999999 </DataArray>
</PointData>
<CellData/>
</Piece>
</UnstructuredGrid>
</VTKFile>
