<?xml version="1.0" ?>
<VTKFile byte_order="LittleEndian" type="UnstructuredGrid" version="0.1">
<UnstructuredGrid>
<Piece NumberOfCells="0" NumberOfPoints="24">
<Points>
<DataArray NumberOfComponents="3" format="ascii" type="Float32">1 1 2 4.083878687573864 1 2 1.2 6.2207931702086041 2 4.7841968827624282 10.709149753599819 2 2.9392214248548822 14.19632555821757 2 5.9992131086327509 9.3384722252860364 2 3.1101808340848893 3.0769867170073706 2 7.7827446429173852 16.553497761806266 2 1.2 10.014695318123398 2 1.2 2.5517017863352645 2 5.6526717652386527 12.823864108051298 2 1 14.379477209555102 2 3.1631970795742337 5.0719338258681574 2 8.8 14.43007538958811 2 1 8.0395103334352775 2 1.2 4.3710507394147102 2 2.9111869722831423 10.591446431433402 2 3.5621479352252803 12.313929632991345 2 4.9428773168099331 2.5509464666633135 2 6.7355752383018981 14.653235281886321 2 1.2153959726938475 12.252762127674814 2 2.5744523407594588 1 2 4.8633195942763132 14.847083450932836 2 7.7830400790488437 12.642534562185473 2 </DataArray>
</Points>
<Cells>
<DataArray Name="connectivity" format="ascii" type="Int32">0</DataArray>
<DataArray Name="offsets" format="ascii" type="Int32">0</DataArray>
<DataArray Name="types" format="ascii" type="UInt8">1</DataArray>
</Cells>
<PointData>
<DataArray Name="Points" NumberOfComponents="3" format="ascii" type="Float32">1 1 2 4.083878687573864 1 2 1.2 6.2207931702086041 2 4.7841968827624282 10.709149753599819 2 2.9392214248548822 14.19632555821757 2 5.9992131086327509 9.3384722252860364 2 3.1101808340848893 3.0769867170073706 2 7.7827446429173852 16.553497761806266 2 1.2 10.014695318123398 2 1.2 2.5517017863352645 2 5.6526717652386527 12.823864108051298 2 1 14.379477209555102 2 3.1631970795742337 5.0719338258681574 2 8.8 14.43007538958811 2 1 8.0395103334352775 2 1.2 4.3710507394147102 2 2.9111869722831423 10.591446431433402 2 3.5621479352252803 12.313929632991345 2 4.9428773168099331 2.5509464666633135 2 6.7355752383018981 14.653235281886321 2 1.2153959726938475 12.252762127674814 2 2.5744523407594588 1 2 4.8633195942763132 14.847083450932836 2 7.7830400790488437 12.642534562185473 2 </DataArray>
<DataArray Name="forces" NumberOfComponents="3" format="ascii" type="Float32">-0.50792403562970379 -0.6315515038792715 0.0 0.012882024719008345 -0.3787750889456461 0.0 -0.25111263837500158 0.064474505052185493 0.0 -0.0034058654013812278 0.078825702612066756 0.0 0.023801372803422066 0.1300719604678986 0.0 -0.00085713689289496076 0.062072222973908069 0.0 0.014663198354503406 0.044298961331383606 0.0 -0.0044679266460509182 0.068322840001159291 0.0 -0.54203499976645542 0.09687764824517478 0.0 -0.41057117391625331 0.033951811323359615 0.0 -0.027974243175389914 0.077148801001558964 0.0 -0.26058593093579108 0.086410947984618167 0.0 -0.021916732437672753 0.059978210786772373 0.0 0.20957489452534867 0.070810821569566543 0.0 -0.26738403346262679 0.071444119433166586 0.0 -0.18540225688307471 0.043937706738475926 0.0 0.0097416355424100459 0.05802333866564327 0.0 -0.032804349996437623 0.076487814924018488 0.0 0.045819558318903109 0.045288142827823008 0.0 0.018429608626696195 0.03825310765622221 0.0 0.00723462014533203 0.10094837755335606 0.0 0.0054142768000202957 -0.15287500146682648 0.0 0.033950928305666955 0.092447078742301944 0.0 -0.03047215993022321 0.076943616234750656 0.0 </DataArray>
<DataArray Name="radii" format="ascii" type="Float32">1 1 1.2 1.2 1.2 1 1.2 1.2 1.2 1.2 1.2 1 1 1.2 1 1.2 1 1 1.2 1 1.2 1 1 1 </DataArray>
</PointData>
<CellData/>
</Piece>
</UnstructuredGrid>
</VTKFile>
