<?xml version="1.0" ?>
<VTKFile byte_order="LittleEndian" type="UnstructuredGrid" version="0.1">
<UnstructuredGrid>
<Piece NumberOfCells="0" NumberOfPoints="24">
<Points>
<DataArray NumberOfComponents="3" format="ascii" type="Float32">1 1 2 4.0295362089189366 1 2 1.5844348009764149 5.9175564134256931 2 4.6946714915580525 10.500265456990673 2 2.7681655958742035 13.600596730380287 2 5.8066733659245058 9.1362671692974171 2 2.8649512944318181 3.1488547336426516 2 7.6344266328744457 16.203397747534478 2 1 9.4941965062942693 2 1 2.6791097303485656 2 5.7241432562999046 12.728883534279687 2 1 14.013462256895686 2 3.3301882613616529 4.8631831174102267 2 8.7217269279003329 14.003966992419313 2 1 7.6076348074803404 2 1 4.3617045485667267 2 2.7522319484305529 10.32262254264961 2 3.6650154156679848 12.005816579512143 2 4.6864812823930304 2.662045894177608 2 6.4473769969632473 14.61833543956074 2 1.0 11.44037450585625 2 2.5012379405258658 1.3884954293031897 2 4.5179451575737826 14.35927058350409 2 8.1844545550540282 12.119250026463209 2 </DataArray>
</Points>
<Cells>
<DataArray Name="connectivity" format="ascii" type="Int32">0</DataArray>
<DataArray Name="offsets" format="ascii" type="Int32">0</DataArray>
<DataArray Name="types" format="ascii" type="UInt8">1</DataArray>
</Cells>
<PointData>
<DataArray Name="Points" NumberOfComponents="3" format="ascii" type="Float32">1 1 2 4.0295362089189366 1 2 1.5844348009764149 5.9175564134256931 2 4.6946714915580525 10.500265456990673 2 2.7681655958742035 13.600596730380287 2 5.8066733659245058 9.1362671692974171 2 2.8649512944318181 3.1488547336426516 2 7.6344266328744457 16.203397747534478 2 1 9.4941965062942693 2 1 2.6791097303485656 2 5.7241432562999046 12.728883534279687 2 1 14.013462256895686 2 3.3301882613616529 4.8631831174102267 2 8.7217269279003329 14.003966992419313 2 1 7.6076348074803404 2 1 4.3617045485667267 2 2.7522319484305529 10.32262254264961 2 3.6650154156679848 12.005816579512143 2 4.6864812823930304 2.662045894177608 2 6.4473769969632473 14.61833543956074 2 1.0 11.44037450585625 2 2.5012379405258658 1.3884954293031897 2 4.5179451575737826 14.35927058350409 2 8.1844545550540282 12.119250026463209 2 </DataArray>
<DataArray Name="forces" NumberOfComponents="3" format="ascii" type="Float32">-0.43268651583532614 -0.42866182156195531 0.0 -0.0032367995301665897 -0.30241620021200116 0.0 -0.015017026054420332 0.01713482305630426 0.0 -0.02537387419326792 0.040860761779379695 0.0 0.010641136587203393 0.068889410959957625 0.0 -0.028997427665815062 0.04378818535680383 0.0 -0.069734457365705979 0.02396051317845635 0.0 0.012252450058772965 0.016197508593207482 0.0 -0.073484792547743052 0.047475945217656509 0.0 -0.072300273595656842 -0.0068617229827879125 0.0 0.0 0.0 0.0 -0.18034684051552363 0.042836917061363666 0.0 0.031628034900981671 0.014729661882607884 0.0 0.011486494250345546 0.040529869930931037 0.0 -0.17101571930830967 0.036145828531153334 0.0 -0.12065398460025491 0.0010391600598402273 0.0 -0.031168853800271963 0.089796927387854331 0.0 0.024974641433409654 0.071893188143574177 0.0 -0.045353964293409488 0.027733802633194304 0.0 0.041410824285133721 -0.0087125734662366304 0.0 0.0 0.055926837265099394 0.0 -0.0091114122219238449 0.0074290997932020455 0.0 0.032295386074779962 0.030373194503459069 0.0 -0.0022468135918769089 0.036389891349399878 0.0 </DataArray>
<DataArray Name="radii" format="ascii" type="Float32">1 1 1 1 1 1 1 1 1 1 1 1 1 1 1 1 1 1 1 1 1 1 1 1 </DataArray>
</PointData>
<CellData/>
</Piece>
</UnstructuredGrid>
</VTKFile>
