<?xml version="1.0" ?>
<VTKFile byte_order="LittleEndian" type="UnstructuredGrid" version="0.1">
<UnstructuredGrid>
<Piece NumberOfCells="0" NumberOfPoints="64">
<Points>
<DataArray NumberOfComponents="3" format="ascii" type="Float32">1.2 2.3215196022081042 2 4.8163518182209728 1.5999999999999999 2 1.5999999999999999 6.7773359667998871 2 5.8337556579164644 12.556590458936242 2 1.7854922451376034 22.150098516435708 2 7.1017818611861303 11.892744937669702 2 5.4502316644472275 3.9946498594957398 2 8.4 21.789262009492219 2 1.5999999999999999 11.181129137094599 2 1.5999999999999999 3.1040008602244216 2 6.0445012115154553 17.185182383593556 2 1.5999999999999999 17.433196146057661 2 4.2613075982685968 6.4358641455326611 2 8.4 17.113769558518424 2 1.4 8.9078039174739203 2 1.5999999999999999 5.785980900422584 2 3.0134551034129804 13.116583794596302 2 4.0447635318823387 15.826281779346244 2 7.0201932201754182 1.5999999999999999 2 5.4323501325475005 19.733730387860351 2 1.5999999999999999 15.117067552419728 2 3.2101988830469614 1.4 2 4.4413143865362903 21.432012319192062 2 7.5870580439196544 14.941500629703139 2 2.4896325587750088 8.2349737654758712 2 5.7748808484473653 11.233490153118959 2 4.4668313806385607 17.414562920198172 2 4.1978073011527428 4.9276714906325081 2 6.1685882342798344 21.571533335475792 2 1.5999999999999999 13.735087989213588 2 3.1488030611507192 2.7397073244297734 2 5.3173369915596798 15.821675805876984 2 9.0 15.216778868625653 2 1.5999999999999999 3.9191436196929361 2 5.7396377319061198 1.5999999999999999 2 3.1970951803092951 17.716746468208893 2 3.9683797055588172 1.5999999999999999 2 3.1801837578817209 7.0036990995627235 2 4.6750680169181944 13.665171942707378 2 1.5999999999999999 19.562016403906341 2 4.1507331428801759 3.8238893730192247 2 8.4 19.07064874154954 2 2.5403830320356078 10.423171696840761 2 1.5999999999999999 1.5999999999999999 2 7.2649260437978285 16.377240946857949 2 5.1573563601169683 5.4815890677138706 2 6.9779446357441879 19.42042955429956 2 2.8307950477686847 4.0358028563979751 2 4.4847631804422141 12.209358031520434 2 7.5793458747626126 2.5089479719133032 2 2.3826897179779762 16.016020649068189 2 1.5999999999999999 7.8030100119027139 2 2.9566808069198136 5.6664001520686949 2 1.5999999999999999 12.455098133879925 2 4.7925233236619871 2.7088156677199389 2 1.5999999999999999 4.8376036655121446 2 6.273152199964076 2.9071834764301641 2 3.406559956931102 19.824006706928241 2 1.4 9.9628854131932112 2 3.6293704575630024 14.48952490315123 2 2.386023005254474 1.4 2 1.2 1.2 2 5.6143645671622178 14.661350770535826 2 5.0121340726692685 18.415698078870815 2 </DataArray>
</Points>
<Cells>
<DataArray Name="connectivity" format="ascii" type="Int32">0</DataArray>
<DataArray Name="offsets" format="ascii" type="Int32">0</DataArray>
<DataArray Name="types" format="ascii" type="UInt8">1</DataArray>
</Cells>
<PointData>
<DataArray Name="Points" NumberOfComponents="3" format="ascii" type="Float32">1.2 2.3215196022081042 2 4.8163518182209728 1.5999999999999999 2 1.5999999999999999 6.7773359667998871 2 5.8337556579164644 12.556590458936242 2 1.7854922451376034 22.150098516435708 2 7.1017818611861303 11.892744937669702 2 5.4502316644472275 3.9946498594957398 2 8.4 21.789262009492219 2 1.5999999999999999 11.181129137094599 2 1.5999999999999999 3.1040008602244216 2 6.0445012115154553 17.185182383593556 2 1.5999999999999999 17.433196146057661 2 4.2613075982685968 6.4358641455326611 2 8.4 17.113769558518424 2 1.4 8.9078039174739203 2 1.5999999999999999 5.785980900422584 2 3.0134551034129804 13.116583794596302 2 4.0447635318823387 15.826281779346244 2 7.0201932201754182 1.5999999999999999 2 5.4323501325475005 19.733730387860351 2 1.5999999999999999 15.117067552419728 2 3.2101988830469614 1.4 2 4.4413143865362903 21.432012319192062 2 7.5870580439196544 14.941500629703139 2 2.4896325587750088 8.2349737654758712 2 5.7748808484473653 11.233490153118959 2 4.4668313806385607 17.414562920198172 2 4.1978073011527428 4.9276714906325081 2 6.1685882342798344 21.571533335475792 2 1.5999999999999999 13.735087989213588 2 3.1488030611507192 2.7397073244297734 2 5.3173369915596798 15.821675805876984 2 9.0 15.216778868625653 2 1.5999999999999999 3.9191436196929361 2 5.7396377319061198 1.5999999999999999 2 3.1970951803092951 17.716746468208893 2 3.9683797055588172 1.5999999999999999 2 3.1801837578817209 7.0036990995627235 2 4.6750680169181944 13.665171942707378 2 1.5999999999999999 19.562016403906341 2 4.1507331428801759 3.8238893730192247 2 8.4 19.07064874154954 2 2.5403830320356078 10.423171696840761 2 1.5999999999999999 1.5999999999999999 2 7.2649260437978285 16.377240946857949 2 5.1573563601169683 5.4815890677138706 2 6.9779446357441879 19.42042955429956 2 2.8307950477686847 4.0358028563979751 2 4.4847631804422141 12.209358031520434 2 7.5793458747626126 2.5089479719133032 2 2.3826897179779762 16.016020649068189 2 1.5999999999999999 7.8030100119027139 2 2.9566808069198136 5.6664001520686949 2 1.5999999999999999 12.455098133879925 2 4.7925233236619871 2.7088156677199389 2 1.5999999999999999 4.8376036655121446 2 6.273152199964076 2.9071834764301641 2 3.406559956931102 19.824006706928241 2 1.4 9.9628854131932112 2 3.6293704575630024 14.48952490315123 2 2.386023005254474 1.4 2 1.2 1.2 2 5.6143645671622178 14.661350770535826 2 5.0121340726692685 18.415698078870815 2 </DataArray>
<DataArray Name="forces" NumberOfComponents="3" format="ascii" type="Float32">-4.4675396278444763 0.28158466353107425 0.0 0.028044776349331002 -4.7019243553383019 0.0 -4.0609235041752321 0.41662492534964568 0.0 -0.075924392756280823 0.55527350964854805 0.0 -0.16582813659370205 0.90766490456239302 0.0 0.06157317450740811 0.39899788731427377 0.0 0.15080776184865341 0.63803621934983401 0.0 0.58162731895482878 0.89539453494251497 0.0 -3.6451926201263127 0.66255790866214825 0.0 -3.7903981977636616 0.52374237414230473 0.0 0.13186702199961853 0.88728484753507941 0.0 -2.5099189610199537 0.7957776608846836 0.0 0.050829619307428617 0.57972679998562116 0.0 2.7807625394699689 0.72527554096545188 0.0 -3.7312323653553863 0.37647913361540253 0.0 -4.4994094739660513 0.48434275283614814 0.0 0.14103593351283139 0.63909047073393843 0.0 -0.07917012515719285 0.56938364073953607 0.0 -0.13678070379960727 -3.4967699464217503 0.0 -0.13851865132607116 0.81325991596292402 0.0 -3.1162362214087249 0.57705220889716036 0.0 0.0048879335668141621 -4.5064387103241552 0.0 -0.11255004153265186 0.93685019528214108 0.0 0.33051413421553644 0.57148696177857206 0.0 -0.17009470340940946 0.65853639171431866 0.0 0.04997111894230629 0.57830891861197375 0.0 -0.062493170375781282 0.22430742206487497 0.0 0.13465171421814814 0.51841285938064874 0.0 -0.039887911526761577 0.66260670889913098 0.0 -2.8546014057548921 0.59362343328530076 0.0 0.089875088906236134 0.42223619658272959 0.0 -0.016162332304920257 0.53642887132626282 0.0 2.2086863612858778 0.38374748273620268 0.0 -4.4246881387984907 0.50382958082171903 0.0 -0.014895148269866598 -3.6626969085270829 0.0 0.039818115926407049 0.90677081616860078 0.0 0.036374148011289284 -4.3830791763131076 0.0 0.035153260782360918 0.53687589007267311 0.0 0.047351748043537034 0.78200222220857607 0.0 -1.9039037828837952 0.84493828338032628 0.0 0.033412290114390612 0.52653308354507966 0.0 1.9361597332747722 0.71759315915672639 0.0 -0.1598241471493087 0.51714164561773612 0.0 -3.0222460934669195 -3.1996209137036669 0.0 -0.12085965549492766 0.61899681891152514 0.0 0.19947378357739087 0.64794942512508169 0.0 -0.031983091237101968 0.93372364075459413 0.0 0.069116136733252995 0.4584321073586291 0.0 0.0012660850474367977 0.66924941781550784 0.0 0.21021827382187896 0.14819033497306777 0.0 -0.31126844065391623 0.81721743155665338 0.0 -4.3872630887057467 0.40462661027131563 0.0 0.20438133025245775 0.48205010447307173 0.0 -3.2275881615940669 0.65575725181796796 0.0 0.068341414935885858 0.62930962351386577 0.0 -4.5589612248565912 0.51419039014993162 0.0 0.10129037171508759 0.60512285672420063 0.0 0.10916462254582315 0.90771431022413629 0.0 -3.828064235084716 0.40156746089094852 0.0 0.040820926769645105 0.62640584479909667 0.0 0.0087493827414755199 -4.2937191843089133 0.0 -3.9722852679422438 -4.2398271716554623 0.0 0.18230991349413678 0.55751026065780562 0.0 0.072636454456342425 0.29749207332760214 0.0 </DataArray>
<DataArray Name="radii" format="ascii" type="Float32">1.2 1.5999999999999999 1.5999999999999999 1.5999999999999999 1.5999999999999999 1.4 1.5999999999999999 1.5999999999999999 1.5999999999999999 1.5999999999999999 1.5999999999999999 1.5999999999999999 1.5999999999999999 1.5999999999999999 1.4 1.5999999999999999 1.5999999999999999 1.4 1.5999999999999999 1.4 1.5999999999999999 1.4 1 1.5999999999999999 1.5999999999999999 1.5999999999999999 1 1.5999999999999999 1 1.5999999999999999 1.5999999999999999 1.2 1 1.5999999999999999 1.5999999999999999 1.5999999999999999 1.5999999999999999 1.5999999999999999 1.5999999999999999 1.5999999999999999 1.5999999999999999 1.5999999999999999 1.5999999999999999 1.5999999999999999 1.5999999999999999 1.5999999999999999 1.5999999999999999 1.5999999999999999 1.5999999999999999 1.5999999999999999 1.5999999999999999 1.5999999999999999 1.5999999999999999 1.5999999999999999 1.5999999999999999 1.5999999999999999 1.5999999999999999 1.5999999999999999 1.4 1.4 1.4 1.2 1.2 1 </DataArray>
</PointData>
<CellData/>
</Piece>
</UnstructuredGrid>
</VTKFile>
