<?xml version="1.0" ?>
<VTKFile byte_order="LittleEndian" type="UnstructuredGrid" version="0.1">
<UnstructuredGrid>
<Piece NumberOfCells="0" NumberOfPoints="6">
<Points>
<DataArray NumberOfComponents="3" format="ascii" type="Float32">1 1 2 2.8853395873115137 1 2 1.402953884391364 3.3572232840516403 2 6.4217095214772462 7.867376432106691 2 2.0895930595253636 6.0706864559749967 2 6.2572774503399655 5.4859700880632039 2 </DataArray>
</Points>
<Cells>
<DataArray Name="connectivity" format="ascii" type="Int32">0</DataArray>
<DataArray Name="offsets" format="ascii" type="Int32">0</DataArray>
<DataArray Name="types" format="ascii" type="UInt8">1</DataArray>
</Cells>
<PointData>
<DataArray Name="Points" NumberOfComponents="3" format="ascii" type="Float32">1 1 2 2.8853395873115137 1 2 1.402953884391364 3.3572232840516403 2 6.4217095214772462 7.867376432106691 2 2.0895930595253636 6.0706864559749967 2 6.2572774503399655 5.4859700880632039 2 </DataArray>
<DataArray Name="forces" NumberOfComponents="3" format="ascii" type="Float32">-0.045482273242770557 -0.017679503544234736 0.0 -0.03803047110761959 0.0 0.0 0.00055702841024409411 0.0085350742571658131 0.0 0.0019439889705785201 0.035870004072920417 0.0 -0.020939023338966887 0.018764416817155332 0.0 -0.017279573761567017 0.022609485261591789 0.0 </DataArray>
<DataArray Name="radii" format="ascii" type="Float32">1 1 1.4 1.4 1.4 1 </DataArray>
</PointData>
<CellData/>
</Piece>
</UnstructuredGrid>
</VTKFile>
