<?xml version="1.0" ?>
<VTKFile byte_order="LittleEndian" type="UnstructuredGrid" version="0.1">
<UnstructuredGrid>
<Piece NumberOfCells="0" NumberOfPoints="24">
<Points>
<DataArray NumberOfComponents="3" format="ascii" type="Float32">1 1 2 4.1262733070026805 1 2 1.4 6.475587493776473 2 4.8322722318528388 11.048327835404576 2 3.1138937442572732 14.70711470350826 2 6.1931163425414795 9.5854003486505377 2 3.2901297118161468 3.0252518720100969 2 7.7567646265553334 17.164054689021757 2 1.4 10.253792637847505 2 1.4 2.5135791670203744 2 5.4515459953519816 13.393869690408817 2 1 14.900795558033908 2 3.1727154013509216 5.2242768930982377 2 8.6 14.575016506038336 2 1 8.2552998178530519 2 1.4 4.4808215003503058 2 3.0776605715665601 10.586468929646404 2 3.4203092191013549 12.490781398953212 2 5.2635313878721064 2.4490743729997626 2 6.6329580700611306 15.167287368424041 2 1.4 12.664761579368413 2 2.6588833498216822 1 2 4.978827252152735 15.749549025072652 2 7.5306967173187926 12.858200391275322 2 </DataArray>
</Points>
<Cells>
<DataArray Name="connectivity" format="ascii" type="Int32">0</DataArray>
<DataArray Name="offsets" format="ascii" type="Int32">0</DataArray>
<DataArray Name="types" format="ascii" type="UInt8">1</DataArray>
</Cells>
<PointData>
<DataArray Name="Points" NumberOfComponents="3" format="ascii" type="Float32">1 1 2 4.1262733070026805 1 2 1.4 6.475587493776473 2 4.8322722318528388 11.048327835404576 2 3.1138937442572732 14.70711470350826 2 6.1931163425414795 9.5854003486505377 2 3.2901297118161468 3.0252518720100969 2 7.7567646265553334 17.164054689021757 2 1.4 10.253792637847505 2 1.4 2.5135791670203744 2 5.4515459953519816 13.393869690408817 2 1 14.900795558033908 2 3.1727154013509216 5.2242768930982377 2 8.6 14.575016506038336 2 1 8.2552998178530519 2 1.4 4.4808215003503058 2 3.0776605715665601 10.586468929646404 2 3.4203092191013549 12.490781398953212 2 5.2635313878721064 2.4490743729997626 2 6.6329580700611306 15.167287368424041 2 1.4 12.664761579368413 2 2.6588833498216822 1 2 4.978827252152735 15.749549025072652 2 7.5306967173187926 12.858200391275322 2 </DataArray>
<DataArray Name="forces" NumberOfComponents="3" format="ascii" type="Float32">-0.55503876079756576 -0.80813396279080985 0.0 0.014785325406984851 -0.63419296910355549 0.0 -0.71697701111499346 0.13407661738126464 0.0 0.021667749963584726 0.18726426748673919 0.0 0.0071845299958988307 0.16796888489082137 0.0 0.022654650377462504 0.1205676415827803 0.0 0.010654459765142982 0.063976109499852052 0.0 0.028610597812582263 0.16874471561293114 0.0 -0.86382637334145862 0.17849267324702056 0.0 -0.87573406171884716 0.085850426561353221 0.0 -0.034653984357983142 0.2188763613503581 0.0 -0.29977702752203395 0.15188248475225391 0.0 -0.023967852852962712 0.062023758427095677 0.0 0.55622107125240494 0.14744082849865414 0.0 -0.56436678217119296 0.1094623618896956 0.0 -0.76973684910042195 0.095207375663293486 0.0 0.03142293737827101 0.028339324748434633 0.0 -0.024868608659200597 0.07099108770730328 0.0 0.040491659133561897 0.0891004009237506 0.0 -0.002588606689590045 0.14725043372041968 0.0 -0.43150709961463485 0.19242570395740122 0.0 0.0014023873758068905 -0.59821940245073602 0.0 -0.0010226494949543419 0.2113222485858357 0.0 -0.03643548067861635 0.11840239737193786 0.0 </DataArray>
<DataArray Name="radii" format="ascii" type="Float32">1 1 1.4 1.4 1.4 1 1.4 1.4 1.4 1.4 1.4 1 1 1.4 1 1.4 1 1 1.4 1 1.4 1 1 1 </DataArray>
</PointData>
<CellData/>
</Piece>
</UnstructuredGrid>
</VTKFile>
