<?xml version="1.0" ?>
<VTKFile byte_order="LittleEndian" type="UnstructuredGrid" version="0.1">
<UnstructuredGrid>
<Piece NumberOfCells="0" NumberOfPoints="58">
<Points>
<DataArray NumberOfComponents="3" format="ascii" type="Float32">1.4 1.4 2 4.9199052835987871 1 2 1 6.3541164359187539 2 5.5994134531299586 12.292808572342206 2 2.1463023236941434 19.881839582440218 2 6.7155296852085087 11.471868980511948 2 5.2087402456025922 3.2879382853061561 2 8.028818798488631 19.711565336165439 2 1 10.75404935746421 2 1 2.5440928694144245 2 6.1760521300251625 16.391574248127991 2 1 16.468783171576767 2 3.8903334205904563 6.2401784727328744 2 9.0 16.368086737917324 2 1.5999999999999999 8.7420552927970565 2 1 5.3724735073356022 2 2.7042118509505699 12.209591464753018 2 3.46712660531117 14.340767535296573 2 6.77825268102215 2.2815503743505956 2 6.1008673737505736 18.085377752989906 2 1 14.346795909398978 2 3.1400240523827176 1.5999999999999999 2 4.6410001571566841 18.917382218175984 2 7.6321423957433572 14.493350167798777 2 2.6960267066180426 7.3653484805304226 2 5.5159702803009871 10.793855107048319 2 4.4956206729539563 16.731854762794768 2 3.6996389088089185 4.5518013622552997 2 6.1536185178258433 19.987650971458994 2 1.4597220756452611 13.120830001959357 2 2.6061215423912407 3.0788917897936074 2 5.6628417073415429 14.639999745899757 2 9.0 14.646659107670949 2 1 3.4836216367012383 2 5.6539133192201367 1 2 2.6640581729064658 16.582451406733437 2 3.9429333711755121 1 2 2.6232047026842706 6.0506750480691132 2 4.4255729650846201 12.825339942158925 2 1.42447747065703 18.148474930257652 2 3.9913541340634904 3.6204842231416743 2 9.0 18.207424684603598 2 2.0979268225562948 10.311938334414599 2 2.1194690702800973 1 2 7.5495201811795374 15.965051687383642 2 4.6691699100958655 5.066269605449973 2 7.6030228234882449 17.661954576598504 2 2.3058022766109332 4.0182024956519333 2 4.1890445029119991 11.455343353946443 2 7.2670512086883283 2.9942236169613423 2 1.8649185246706901 15.171034339580038 2 1.3062427514510042 7.1785779152802442 2 2.556617606793079 5.1160380320991559 2 1 11.934357024484887 2 4.3028405906575076 2.5125817149187193 2 1 4.4484301115152149 2 5.6342179632512011 2.3994944457489202 2 3.1815309371405922 18.192565265129648 2 </DataArray>
</Points>
<Cells>
<DataArray Name="connectivity" format="ascii" type="Int32">0</DataArray>
<DataArray Name="offsets" format="ascii" type="Int32">0</DataArray>
<DataArray Name="types" format="ascii" type="UInt8">1</DataArray>
</Cells>
<PointData>
<DataArray Name="Points" NumberOfComponents="3" format="ascii" type="Float32">1.4 1.4 2 4.9199052835987871 1 2 1 6.3541164359187539 2 5.5994134531299586 12.292808572342206 2 2.1463023236941434 19.881839582440218 2 6.7155296852085087 11.471868980511948 2 5.2087402456025922 3.2879382853061561 2 8.028818798488631 19.711565336165439 2 1 10.75404935746421 2 1 2.5440928694144245 2 6.1760521300251625 16.391574248127991 2 1 16.468783171576767 2 3.8903334205904563 6.2401784727328744 2 9.0 16.368086737917324 2 1.5999999999999999 8.7420552927970565 2 1 5.3724735073356022 2 2.7042118509505699 12.209591464753018 2 3.46712660531117 14.340767535296573 2 6.77825268102215 2.2815503743505956 2 6.1008673737505736 18.085377752989906 2 1 14.346795909398978 2 3.1400240523827176 1.5999999999999999 2 4.6410001571566841 18.917382218175984 2 7.6321423957433572 14.493350167798777 2 2.6960267066180426 7.3653484805304226 2 5.5159702803009871 10.793855107048319 2 4.4956206729539563 16.731854762794768 2 3.6996389088089185 4.5518013622552997 2 6.1536185178258433 19.987650971458994 2 1.4597220756452611 13.120830001959357 2 2.6061215423912407 3.0788917897936074 2 5.6628417073415429 14.639999745899757 2 9.0 14.646659107670949 2 1 3.4836216367012383 2 5.6539133192201367 1 2 2.6640581729064658 16.582451406733437 2 3.9429333711755121 1 2 2.6232047026842706 6.0506750480691132 2 4.4255729650846201 12.825339942158925 2 1.42447747065703 18.148474930257652 2 3.9913541340634904 3.6204842231416743 2 9.0 18.207424684603598 2 2.0979268225562948 10.311938334414599 2 2.1194690702800973 1 2 7.5495201811795374 15.965051687383642 2 4.6691699100958655 5.066269605449973 2 7.6030228234882449 17.661954576598504 2 2.3058022766109332 4.0182024956519333 2 4.1890445029119991 11.455343353946443 2 7.2670512086883283 2.9942236169613423 2 1.8649185246706901 15.171034339580038 2 1.3062427514510042 7.1785779152802442 2 2.556617606793079 5.1160380320991559 2 1 11.934357024484887 2 4.3028405906575076 2.5125817149187193 2 1 4.4484301115152149 2 5.6342179632512011 2.3994944457489202 2 3.1815309371405922 18.192565265129648 2 </DataArray>
<DataArray Name="forces" NumberOfComponents="3" format="ascii" type="Float32">-2.3713943952146286 -1.0384948883287788 0.0 0.022287867655411076 -0.94895671454443775 0.0 -0.83086581554821226 -0.015454579876300056 0.0 -0.032054007658694761 0.11610525073757555 0.0 0.046393040768000382 0.12070491040646859 0.0 0.027596239110417892 0.14886875342840328 0.0 0.043875080277576195 0.14298846804237386 0.0 -0.011866177268754871 0.16137455017754879 0.0 -0.88588459508739481 -0.043753929346441289 0.0 -0.9972918307168771 0.025612719777973386 0.0 0.051499350191981888 0.26534396027233265 0.0 -0.63777752508205643 0.078893438559405393 0.0 -0.03239202005058453 0.046928569025084133 0.0 0.54580108817175543 0.18606534283434067 0.0 -1.6216445253211202 0.25013960131928514 0.0 -0.75194862355204051 0.065478493418450689 0.0 -0.079483392726088786 0.10748666576126766 0.0 -0.04572128822364141 0.26602558539676174 0.0 -0.0071828220235959916 0.026131590224096821 0.0 -0.087870659241486959 0.23345448709862371 0.0 -0.96062738517529977 0.08743980326560763 0.0 0.04311069522160238 -0.12634496976949927 0.0 -0.064179576750575229 0.25065033228923744 0.0 -0.012008677015096845 0.026366900404417193 0.0 -0.099995564986577801 -0.072233249700510913 0.0 0.020304024680810731 0.094684196565269718 0.0 -0.058461204558777291 0.23481243763857412 0.0 0.019140801289270759 0.14094604598872262 0.0 0.022125847870307316 0.19643651390030531 0.0 -0.079068217230766957 0.17796222660494598 0.0 0.00065608855534321497 0.030776639862441196 0.0 -0.026775868479705756 0.26319906412319616 0.0 0.64453630414361995 0.1249562933268249 0.0 -0.92914572261567607 0.049416538028766999 0.0 0.034865988805720824 -0.82099258501867145 0.0 -0.0082671131482260907 0.23220586939138388 0.0 0.041469143748231754 -1.3923911813932859 0.0 -0.095520815647813492 0.11366711916244332 0.0 -0.066537765244789104 0.098329868653386887 0.0 -0.23174593164513868 0.14135578478329194 0.0 -0.050489172030837942 0.084463856034672102 0.0 0.58276466024554219 0.16591499021211839 0.0 0.034371773254737732 0.32023614209064744 0.0 0.035545177898394842 -1.5624741901344605 0.0 0.078332206678092875 -0.0023840481868522834 0.0 0.065809456966574489 0.023868986249253404 0.0 -0.040599477406480178 0.12589355578868552 0.0 -0.011272929042717705 -0.004550289099551047 0.0 -0.019075102231971043 0.095544030134000035 0.0 -0.019743511327338037 0.031221012956877028 0.0 -0.069478730902687524 0.22938448728099259 0.0 -0.5301561109538836 0.322755930323258 0.0 -0.027422057023730184 -0.0094943496157843116 0.0 -0.54968210600118161 0.13702621697130371 0.0 0.0040821833483090098 0.10978062549455217 0.0 -0.87321163350610176 0.036354868243762564 0.0 -0.1029130487626142 -0.0062877407818445058 0.0 -0.151189519092469 0.31114651704233209 0.0 </DataArray>
<DataArray Name="radii" format="ascii" type="Float32">1.4 1 1 1 1 1 1 1 1 1 1 1 1 1 1.5999999999999999 1 1 1.5999999999999999 1 1 1 1.5999999999999999 1 1 1 1 1.2 1 1 1 1 1.4 1 1 1 1 1 1 1 1 1 1 1 1 1 1 1 1 1 1 1 1 1 1 1 1 1 1 </DataArray>
</PointData>
<CellData/>
</Piece>
</UnstructuredGrid>
</VTKFile>
