<?xml version="1.0" ?>
<VTKFile byte_order="LittleEndian" type="UnstructuredGrid" version="0.1">
<UnstructuredGrid>
<Piece NumberOfCells="0" NumberOfPoints="15">
<Points>
<DataArray NumberOfComponents="3" format="ascii" type="Float32">1 1 2 3.1995027612489335 1 2 1.5999999999999999 5.1046386998153173 2 4.4688522554910426 10.181235420289047 2 2.7650631455553727 12.545194655693461 2 6.5229412793756749 8.9696025432210753 2 4.0554954710491042 3.0935093756341465 2 7.089923328692441 15.741561113986158 2 1.5999999999999999 9.91724358282484 2 1.5999999999999999 2.6599174977013988 2 5.4622530764073263 13.183558444856043 2 1 13.712279195761315 2 3.7911682259952806 5.3262713001505393 2 8.4 12.90101255038544 2 1 7.4874209980566322 2 </DataArray>
</Points>
<Cells>
<DataArray Name="connectivity" format="ascii" type="Int32">0</DataArray>
<DataArray Name="offsets" format="ascii" type="Int32">0</DataArray>
<DataArray Name="types" format="ascii" type="UInt8">1</DataArray>
</Cells>
<PointData>
<DataArray Name="Points" NumberOfComponents="3" format="ascii" type="Float32">1 1 2 3.1995027612489335 1 2 1.5999999999999999 5.1046386998153173 2 4.4688522554910426 10.181235420289047 2 2.7650631455553727 12.545194655693461 2 6.5229412793756749 8.9696025432210753 2 4.0554954710491042 3.0935093756341465 2 7.089923328692441 15.741561113986158 2 1.5999999999999999 9.91724358282484 2 1.5999999999999999 2.6599174977013988 2 5.4622530764073263 13.183558444856043 2 1 13.712279195761315 2 3.7911682259952806 5.3262713001505393 2 8.4 12.90101255038544 2 1 7.4874209980566322 2 </DataArray>
<DataArray Name="forces" NumberOfComponents="3" format="ascii" type="Float32">-0.28492740850135861 -0.78716305553763988 0.0 -0.028952078025247935 -0.52949714152699467 0.0 -0.70530017797461952 0.1404582670959342 0.0 0.01867798904702217 0.18369149268227436 0.0 -0.046248753729788372 0.16557559445701414 0.0 0.029825954011168221 0.052384338715463191 0.0 -0.0082768076130076418 0.14128373904223518 0.0 0.061658376391315203 0.20926415970378306 0.0 -0.73528407382268945 0.14941675307296082 0.0 -0.61511163177756589 0.11918550600391542 0.0 -0.015352302356912706 0.22198774622668488 0.0 -0.41104944352712491 0.26674874969945822 0.0 0.020482017105254768 0.082085479986895013 0.0 0.29332639461087312 0.18876168614007144 0.0 -0.13008634253938989 0.073362067780733203 0.0 </DataArray>
<DataArray Name="radii" format="ascii" type="Float32">1 1 1.5999999999999999 1.5999999999999999 1.5999999999999999 1 1.5999999999999999 1.5999999999999999 1.5999999999999999 1.5999999999999999 1.5999999999999999 1 1 1.5999999999999999 1 </DataArray>
</PointData>
<CellData/>
</Piece>
</UnstructuredGrid>
</VTKFile>
