<?xml version="1.0" ?>
<VTKFile byte_order="LittleEndian" type="UnstructuredGrid" version="0.1">
<UnstructuredGrid>
<Piece NumberOfCells="0" NumberOfPoints="111">
<Points>
<DataArray NumberOfComponents="3" format="ascii" type="Float32">1.4 2.9439662615368487 2 5.1137343294643243 1 2 1 6.4847963757605802 2 5.8366570008700815 12.89956409260499 2 2.5070345404653369 22.133176851668917 2 7.2091113405077376 12.215361656848724 2 5.545931191374291 4.2259130702314094 2 8.7610899798424366 21.483599683550381 2 1.6322631583467258 11.592471748308014 2 2.0120748190084456 3.7596582194458774 2 6.3352616279493521 17.247099115773182 2 1 17.979618442542396 2 4.3223959390911215 6.6549798810807816 2 8.5017389661802163 16.709318024636147 2 1.5999999999999999 8.9477961099036634 2 1 5.6710585826345774 2 2.7320585928601577 13.127708537618316 2 4.0223501064498732 16.079532026628833 2 7.2628137407167275 1 2 5.2717421860381739 20.224777627530713 2 1 15.089619900333718 2 3.3621506794436291 1.5999999999999999 2 4.2211005410699416 22.111834412402604 2 8.21027387458677 14.838898332359211 2 2.7520075102566346 7.7409507458630458 2 5.5035597308489894 11.136463130171597 2 4.360070587914489 17.576358876052716 2 4.3717289230032659 4.8575755919788639 2 6.1057740355833499 22.175881473178784 2 1 13.90900559610998 2 2.8176904089888035 3.1845039008577225 2 5.521175570936923 16.165009318541397 2 9.0 15.584023069760283 2 1 4.3890674629041051 2 5.5944539624459457 1.3118825862375676 2 2.9261835392069697 17.707727111376439 2 4.549458927392231 1 2 3.2456125413163099 7.041469674179889 2 4.8088519088931001 13.843667294834026 2 1 19.686715212624822 2 4.1282442913579827 3.6507275014678431 2 8.6818584218514498 19.86081631472484 2 2.7943691647382689 10.506253232500416 2 1 1 2 7.5116080166073447 17.23100909375929 2 5.2188137027622821 5.2131789989864945 2 7.376468499491545 18.952591596001231 2 2.7423970088267069 4.0459358354168611 2 4.8572427341235294 11.887348270221535 2 7.3112866558758931 2.2679404760403132 2 2.4396989738958936 16.262152214022603 2 1 8.0172543804566594 2 2.7127423860521258 5.6887423499509335 2 1 12.901291884772446 2 4.8915486202255671 2.5109913801647483 2 1 5.0157309756348782 2 6.5671079284068705 2.8695379800608434 2 3.3980971242761417 20.51342329877814 2 1.5999999999999999 9.8384689958671316 2 3.2354419187231183 14.92922502550331 2 2.144613229846223 1.5999999999999999 2 1.4 1.4 2 5.7314067919706906 14.725357093561591 2 4.9605773431174685 18.605625351034881 2 3.9718056554765311 1 2 1 7.2889653598674951 2 6.1975196932800358 11.755683894346282 2 1 21.990822408263753 2 5.8178965830802234 3.4041519215336007 2 7.6571878194749701 22.909652004226373 2 2.4941216318503447 11.702886375418778 2 1 2.4299202962929844 2 6.3977483655220242 18.33185281326292 2 1.6458128543999848 16.795580227060924 2 4.2449513151686808 7.4965954733476616 2 9.0 17.462595717022779 2 1.8293321712085435 6.4714150471775147 2 3.710736249000917 13.75941230724305 2 7.8881360790439148 1.7598638960377408 2 1.9346124686547206 14.666725962309066 2 6.8196023995106589 15.791415847596822 2 2.3706049168875261 6.981191394229076 2 5.670207858862816 10.264193292723643 2 4.7771299105101441 4.0267144141949425 2 1.9127530441898422 13.301970317938109 2 4.3172795847634946 2.7275913841105774 2 1 3.7077199452174687 2 6.0758510071768699 1 2 2.0112710218587013 18.418918749404661 2 3.4944557368030038 2.6837727984149082 2 3.5166388337374359 6.2062520409682689 2 4.8183715114024901 12.907865919156473 2 2.1168277211496891 20.25431482536192 2 2.7040604506083463 4.816592560461646 2 9.0 18.59512417700439 2 1 10.826678431010397 2 2.8038920042737989 1 2 7.6288215397802555 15.605528933599297 2 5.8019078557853145 5.9677692283184838 2 7.1074462681784292 20.605957809829651 2 3.6232654974758196 4.3199880897533163 2 3.2097622684679008 12.464472362564026 2 8.2785651374866447 2.9780641853992842 2 1 16.275513436373881 2 2.6213279545618375 8.4994858038065448 2 3.7866804277806021 5.4745582660480645 2 1 12.052666055248066 2 5.54881391720658 2.5576682536167104 2 1.9992218485507212 5.3151936180536099 2 6.2626946254854063 2.1068226082748178 2 3.305168899600591 19.03163161894059 2 </DataArray>
</Points>
<Cells>
<DataArray Name="connectivity" format="ascii" type="Int32">0</DataArray>
<DataArray Name="offsets" format="ascii" type="Int32">0</DataArray>
<DataArray Name="types" format="ascii" type="UInt8">1</DataArray>
</Cells>
<PointData>
<DataArray Name="Points" NumberOfComponents="3" format="ascii" type="Float32">1.4 2.9439662615368487 2 5.1137343294643243 1 2 1 6.4847963757605802 2 5.8366570008700815 12.89956409260499 2 2.5070345404653369 22.133176851668917 2 7.2091113405077376 12.215361656848724 2 5.545931191374291 4.2259130702314094 2 8.7610899798424366 21.483599683550381 2 1.6322631583467258 11.592471748308014 2 2.0120748190084456 3.7596582194458774 2 6.3352616279493521 17.247099115773182 2 1 17.979618442542396 2 4.3223959390911215 6.6549798810807816 2 8.5017389661802163 16.709318024636147 2 1.5999999999999999 8.9477961099036634 2 1 5.6710585826345774 2 2.7320585928601577 13.127708537618316 2 4.0223501064498732 16.079532026628833 2 7.2628137407167275 1 2 5.2717421860381739 20.224777627530713 2 1 15.089619900333718 2 3.3621506794436291 1.5999999999999999 2 4.2211005410699416 22.111834412402604 2 8.21027387458677 14.838898332359211 2 2.7520075102566346 7.7409507458630458 2 5.5035597308489894 11.136463130171597 2 4.360070587914489 17.576358876052716 2 4.3717289230032659 4.8575755919788639 2 6.1057740355833499 22.175881473178784 2 1 13.90900559610998 2 2.8176904089888035 3.1845039008577225 2 5.521175570936923 16.165009318541397 2 9.0 15.584023069760283 2 1 4.3890674629041051 2 5.5944539624459457 1.3118825862375676 2 2.9261835392069697 17.707727111376439 2 4.549458927392231 1 2 3.2456125413163099 7.041469674179889 2 4.8088519088931001 13.843667294834026 2 1 19.686715212624822 2 4.1282442913579827 3.6507275014678431 2 8.6818584218514498 19.86081631472484 2 2.7943691647382689 10.506253232500416 2 1 1 2 7.5116080166073447 17.23100909375929 2 5.2188137027622821 5.2131789989864945 2 7.376468499491545 18.952591596001231 2 2.7423970088267069 4.0459358354168611 2 4.8572427341235294 11.887348270221535 2 7.3112866558758931 2.2679404760403132 2 2.4396989738958936 16.262152214022603 2 1 8.0172543804566594 2 2.7127423860521258 5.6887423499509335 2 1 12.901291884772446 2 4.8915486202255671 2.5109913801647483 2 1 5.0157309756348782 2 6.5671079284068705 2.8695379800608434 2 3.3980971242761417 20.51342329877814 2 1.5999999999999999 9.8384689958671316 2 3.2354419187231183 14.92922502550331 2 2.144613229846223 1.5999999999999999 2 1.4 1.4 2 5.7314067919706906 14.725357093561591 2 4.9605773431174685 18.605625351034881 2 3.9718056554765311 1 2 1 7.2889653598674951 2 6.1975196932800358 11.755683894346282 2 1 21.990822408263753 2 5.8178965830802234 3.4041519215336007 2 7.6571878194749701 22.909652004226373 2 2.4941216318503447 11.702886375418778 2 1 2.4299202962929844 2 6.3977483655220242 18.33185281326292 2 1.6458128543999848 16.795580227060924 2 4.2449513151686808 7.4965954733476616 2 9.0 17.462595717022779 2 1.8293321712085435 6.4714150471775147 2 3.710736249000917 13.75941230724305 2 7.8881360790439148 1.7598638960377408 2 1.9346124686547206 14.666725962309066 2 6.8196023995106589 15.791415847596822 2 2.3706049168875261 6.981191394229076 2 5.670207858862816 10.264193292723643 2 4.7771299105101441 4.0267144141949425 2 1.9127530441898422 13.301970317938109 2 4.3172795847634946 2.7275913841105774 2 1 3.7077199452174687 2 6.0758510071768699 1 2 2.0112710218587013 18.418918749404661 2 3.4944557368030038 2.6837727984149082 2 3.5166388337374359 6.2062520409682689 2 4.8183715114024901 12.907865919156473 2 2.1168277211496891 20.25431482536192 2 2.7040604506083463 4.816592560461646 2 9.0 18.59512417700439 2 1 10.826678431010397 2 2.8038920042737989 1 2 7.6288215397802555 15.605528933599297 2 5.8019078557853145 5.9677692283184838 2 7.1074462681784292 20.605957809829651 2 3.6232654974758196 4.3199880897533163 2 3.2097622684679008 12.464472362564026 2 8.2785651374866447 2.9780641853992842 2 1 16.275513436373881 2 2.6213279545618375 8.4994858038065448 2 3.7866804277806021 5.4745582660480645 2 1 12.052666055248066 2 5.54881391720658 2.5576682536167104 2 1.9992218485507212 5.3151936180536099 2 6.2626946254854063 2.1068226082748178 2 3.305168899600591 19.03163161894059 2 </DataArray>
<DataArray Name="forces" NumberOfComponents="3" format="ascii" type="Float32">-1.6996541389700746 0.42397918989676847 0.0 0.046103069178745071 -2.2292945105367497 0.0 -2.0973679402497458 0.22371763968239269 0.0 0.021248563196653691 0.23871208297526902 0.0 0.15222462578892249 0.24982913072696999 0.0 0.0087164758399599362 0.46087123627795024 0.0 -0.0024667629980535855 0.1505962859371559 0.0 0.24836126380450838 0.27008152243643541 0.0 -0.050975786726105587 0.14997349158677897 0.0 0.11740544433945233 0.25689450979415535 0.0 -0.0065478811423832495 0.1541852729759407 0.0 -1.1876207145597171 0.2297954875438063 0.0 0.061680199174912409 0.14152328430729921 0.0 0.30232042521561009 -0.06927598345583541 0.0 -2.578726111827081 0.36974882229137168 0.0 -1.9336382256609783 0.22756750705330134 0.0 -0.10942849846439906 0.16616595836685311 0.0 0.054544155644881305 0.41325735457062113 0.0 0.097960588618514643 -1.9994781207169181 0.0 0.16242420708106031 0.62265413078889664 0.0 -1.4207494841881025 0.17750245158511224 0.0 -0.060025692049369972 -1.0863703200166026 0.0 0.047565256879468096 0.56452737335300585 0.0 0.27704174441338653 0.11741645830297875 0.0 -0.14478635514593616 -0.023561927362424184 0.0 -0.036900753054718564 0.055249634602170986 0.0 -0.045153705487958051 0.41833673137199839 0.0 0.046905241840081269 0.063174527958624327 0.0 -0.034688957077595187 0.44284862410401915 0.0 -1.5881470300300009 0.2994924328107727 0.0 -0.12192479293623198 -0.044260535648636024 0.0 0.1083959916880097 0.43662754705410739 0.0 1.640779784561895 0.2382659466346084 0.0 -1.8460187872614224 0.11363553087575434 0.0 0.080762074079745338 -0.088995068416381162 0.0 -0.069062977068302361 0.17033396371068921 0.0 0.0093879566369480527 -1.6933112542032029 0.0 0.13259244522305513 0.14188014624328099 0.0 0.0099693155236261419 0.26263740045448758 0.0 -0.8972685235702007 0.2520353786115016 0.0 -0.17224171115368361 0.062578783824697698 0.0 0.38084859277006666 0.4348554030745575 0.0 -0.066516920744407571 0.18685733341027527 0.0 -2.8910955800957319 -2.9233846234434946 0.0 0.15957781622052974 0.55833697591050313 0.0 0.029816511153242353 0.049648503753268305 0.0 0.20018172302052561 0.15282669060637732 0.0 0.2526378489891028 0.063041875050889262 0.0 0.13462054973419985 0.11618129915220134 0.0 -0.098375183360748131 0.080284041364976855 0.0 -0.051276619343058494 0.37817079067201315 0.0 -1.8854170599687405 0.17045065359228362 0.0 -0.01411349760926206 0.27160238267221759 0.0 -1.470784324228755 0.26990682306243774 0.0 0.030263356182139489 -0.088140348418988018 0.0 -1.8058783967345999 0.20103479960486154 0.0 -0.042731174674433214 0.16054958564568256 0.0 -0.010037641120855326 0.45368419936076598 0.0 -2.4110470167713074 0.38349802778094699 0.0 -0.079796549519595791 0.51153695301586777 0.0 -0.0833898483638289 -1.5201722182715591 0.0 -2.3720889019255011 -1.7418874098296506 0.0 0.034443613514871685 0.3124488719033498 0.0 -0.029790627415411108 0.30837306797606112 0.0 -0.00040588677389341576 -2.172116033416934 0.0 -1.6429896995404638 0.1895170161810068 0.0 0.025535517970805915 0.15833859525385618 0.0 -0.48934375435669925 -0.043660870926728969 0.0 -0.17388039020767432 0.15384681463195149 0.0 0.13682261367959903 0.2806416047277866 0.0 -0.014391257261604617 0.22373284969464013 0.0 -2.8287071927258189 0.082953231724240517 0.0 0.015136931780124985 0.35726954977014347 0.0 -0.2092235590407916 0.48770207617360251 0.0 0.017755823347602645 0.1461369462877114 0.0 1.1002995484406151 0.24254591813091109 0.0 -0.026780951551233403 0.071939767240562724 0.0 -0.049366633659555598 0.11150972390601843 0.0 0.0029575446450580967 0.25026872073080675 0.0 0.04365791832456091 0.25360899299603795 0.0 0.19586678611799768 0.20724156244417097 0.0 0.034967096591569116 0.034872846452546846 0.0 0.16819833760324257 -0.057427272887183134 0.0 -0.029646820723979839 -0.02910088479734485 0.0 -0.1139961227851552 0.24167375204992839 0.0 0.05717938901850439 0.037508351120715475 0.0 -2.1872765165586818 0.11646757694203594 0.0 0.12653917103900181 -2.290411645474502 0.0 -0.061183758301612767 0.50237417650438942 0.0 0.071123564602113887 0.091298720952777357 0.0 0.041462996108128453 0.042755692077056442 0.0 -0.020634429152366573 0.19012062370953439 0.0 -0.2322955602444941 0.49301998389472501 0.0 -0.16632660699070512 0.22670451020033389 0.0 0.51514293776492037 0.1693129416803314 0.0 -1.9878721955809042 0.18000937823493879 0.0 -0.0026576883902643539 -2.8843380087693244 0.0 0.052385377222361827 0.29290850980214933 0.0 -0.032253590992158521 0.10430359457190039 0.0 0.39912974420397446 0.40512434845304046 0.0 0.0014035002467841368 0.18787394812908043 0.0 -0.047222034236793997 0.11403078738637856 0.0 0.01450814774752357 -0.16351904419913466 0.0 -1.5550064411705491 -0.093572150776452923 0.0 0.20384570036421151 0.12140239962517549 0.0 -0.005841209713007639 0.038249506103127856 0.0 -1.7881019632884798 0.23157525332839635 0.0 0.010148843916318206 0.11418649341260145 0.0 -0.07227221582564633 -0.067032606096851952 0.0 0.0042590368610168072 0.16637055813332713 0.0 -0.11469610821632295 0.40771617082622247 0.0 </DataArray>
<DataArray Name="radii" format="ascii" type="Float32">1.4 1 1 1 1 1.5999999999999999 1 1 1 1 1 1 1 1 1.5999999999999999 1 1 1.5999999999999999 1 1.5999999999999999 1 1.5999999999999999 1 1 1 1 1.2 1 1 1 1 1.4 1 1 1 1 1 1 1 1 1 1 1 1 1 1 1 1 1 1 1 1 1 1 1 1 1 1 1.5999999999999999 1.5999999999999999 1.5999999999999999 1.4 1.4 1.2 1 1 1 1 1 1 1 1 1 1 1 1 1 1 1 1 1 1 1 1 1 1 1 1 1 1 1 1 1 1 1 1 1 1 1 1 1 1 1 1 1 1 1 1 1 1 1 </DataArray>
</PointData>
<CellData/>
</Piece>
</UnstructuredGrid>
</VTKFile>
