<?xml version="1.0" ?>
<VTKFile byte_order="LittleEndian" type="UnstructuredGrid" version="0.1">
<UnstructuredGrid>
<Piece NumberOfCells="0" NumberOfPoints="9">
<Points>
<DataArray NumberOfComponents="3" format="ascii" type="Float32">4.9999979824630492 1 2 5.2924129724561899 5.0536291876514712 2 7.0010033797513218 1 2 9.0 1 2 8.2528230025412022 5.1066311699000302 2 3.4805322573705206 6.1999627618063231 2 9.0 2.9607777264136583 2 6.7975759476591211 3.0602455046152968 2 8.8 7.336487874114229 2 </DataArray>
</Points>
<Cells>
<DataArray Name="connectivity" format="ascii" type="Int32">0</DataArray>
<DataArray Name="offsets" format="ascii" type="Int32">0</DataArray>
<DataArray Name="types" format="ascii" type="UInt8">1</DataArray>
</Cells>
<PointData>
<DataArray Name="Points" NumberOfComponents="3" format="ascii" type="Float32">4.9999979824630492 1 2 5.2924129724561899 5.0536291876514712 2 7.0010033797513218 1 2 9.0 1 2 8.2528230025412022 5.1066311699000302 2 3.4805322573705206 6.1999627618063231 2 9.0 2.9607777264136583 2 6.7975759476591211 3.0602455046152968 2 8.8 7.336487874114229 2 </DataArray>
<DataArray Name="forces" NumberOfComponents="3" format="ascii" type="Float32">1.417451789276214e-06 0.0 0.0 -0.023246399843055973 0.078175887287732726 0.0 -0.0081698872612595529 -0.025764322444190694 0.0 0.010766917890516758 -0.0092025718672981149 0.0 0.027314587516583156 0.083677526986477305 0.0 0.0 0.0 0.0 0.012437140369705803 -0.023016698374802157 0.0 0.0040607039832394748 -0.082468469664184252 0.0 0.021296649595379222 -0.033632484103050649 0.0 </DataArray>
<DataArray Name="radii" format="ascii" type="Float32">1 1.2 1 1 1.2 1 1 1.2 1.2 </DataArray>
</PointData>
<CellData/>
</Piece>
</UnstructuredGrid>
</VTKFile>
