<?xml version="1.0" ?>
<VTKFile byte_order="LittleEndian" type="UnstructuredGrid" version="0.1">
<UnstructuredGrid>
<Piece NumberOfCells="0" NumberOfPoints="58">
<Points>
<DataArray NumberOfComponents="3" format="ascii" type="Float32">6.7061667906943789 1 2 4.9400674137694081 10.424007267050738 2 7.809956654701308 1 2 9.0 1 2 8.6 9.6215735361888033 2 3.1699640071116248 9.3554399453176167 2 9.0 2.1535217791771104 2 8.6 1.4 2 8.6 11.096835055134372 2 3.9953454630736234 8.6772039601877751 2 8.6 6.3995806905913613 2 8.6 7.4438701743018214 2 6.745187808971286 14.218096676707711 2 6.8567797620281183 10.639065055780017 2 9.0 10.282785550837881 2 5.6941206123194341 7.2424614118766675 2 7.5014994827016865 11.077639916806897 2 6.835448290646843 4.5156855436479759 2 6.2627348451076497 8.0107085423195503 2 3.5802064301371379 11.496621722242404 2 8.1618456566218462 10.488991634412379 2 9.0 4.0809298368217757 2 8.6 13.863444600502325 2 7.3103650552566846 3.8452832757078155 2 7.1992427687029679 7.8431703452480708 2 6.7104531843144821 5.3330939494633229 2 6.8393385739389752 5.995425066780772 2 5.1332445097400425 9.4566850413173285 2 7.4501104224132471 9.7318106327941685 2 8.6 3.7386577206974776 2 8.6 13.082059293820507 2 8.6 4.8048991921405024 2 8.2806315121863072 8.3975168836369765 2 6.7173687562603428 6.9910857885771254 2 6.7651287627163432 9.8075921414076142 2 3.7328491101094126 10.276852114302951 2 7.1075218325855181 13.359886935018858 2 8.6 5.8082685406465222 2 7.6214433771490802 6.9581402993004655 2 4.4935640281010318 11.221250642451114 2 9.0 8.0895919267419227 2 9.0 2.7654699695582226 2 8.6 11.894254317861908 2 9.0 5.335000637041027 2 9.0 6.9067725393727715 2 4.9960035526574273 6.0493893555460341 2 7.0867716098524758 8.7629718286001115 2 4.2016110608854165 12.411233781512834 2 7.5532140016073184 14.241970766871907 2 7.6209128192100692 3.042975225582945 2 6.0342959106855467 9.0392572749044575 2 5.2845838935790006 8.3571752017718381 2 7.6605387651986776 5.2693245154511601 2 9.0 12.200438607383113 2 7.8994592984138787 4.39499524446307 2 8.6 8.9629267797136603 2 4.2954123298378581 9.4006228257669697 2 7.5036495262942049 6.1697581843778124 2 </DataArray>
</Points>
<Cells>
<DataArray Name="connectivity" format="ascii" type="Int32">0</DataArray>
<DataArray Name="offsets" format="ascii" type="Int32">0</DataArray>
<DataArray Name="types" format="ascii" type="UInt8">1</DataArray>
</Cells>
<PointData>
<DataArray Name="Points" NumberOfComponents="3" format="ascii" type="Float32">6.7061667906943789 1 2 4.9400674137694081 10.424007267050738 2 7.809956654701308 1 2 9.0 1 2 8.6 9.6215735361888033 2 3.1699640071116248 9.3554399453176167 2 9.0 2.1535217791771104 2 8.6 1.4 2 8.6 11.096835055134372 2 3.9953454630736234 8.6772039601877751 2 8.6 6.3995806905913613 2 8.6 7.4438701743018214 2 6.745187808971286 14.218096676707711 2 6.8567797620281183 10.639065055780017 2 9.0 10.282785550837881 2 5.6941206123194341 7.2424614118766675 2 7.5014994827016865 11.077639916806897 2 6.835448290646843 4.5156855436479759 2 6.2627348451076497 8.0107085423195503 2 3.5802064301371379 11.496621722242404 2 8.1618456566218462 10.488991634412379 2 9.0 4.0809298368217757 2 8.6 13.863444600502325 2 7.3103650552566846 3.8452832757078155 2 7.1992427687029679 7.8431703452480708 2 6.7104531843144821 5.3330939494633229 2 6.8393385739389752 5.995425066780772 2 5.1332445097400425 9.4566850413173285 2 7.4501104224132471 9.7318106327941685 2 8.6 3.7386577206974776 2 8.6 13.082059293820507 2 8.6 4.8048991921405024 2 8.2806315121863072 8.3975168836369765 2 6.7173687562603428 6.9910857885771254 2 6.7651287627163432 9.8075921414076142 2 3.7328491101094126 10.276852114302951 2 7.1075218325855181 13.359886935018858 2 8.6 5.8082685406465222 2 7.6214433771490802 6.9581402993004655 2 4.4935640281010318 11.221250642451114 2 9.0 8.0895919267419227 2 9.0 2.7654699695582226 2 8.6 11.894254317861908 2 9.0 5.335000637041027 2 9.0 6.9067725393727715 2 4.9960035526574273 6.0493893555460341 2 7.0867716098524758 8.7629718286001115 2 4.2016110608854165 12.411233781512834 2 7.5532140016073184 14.241970766871907 2 7.6209128192100692 3.042975225582945 2 6.0342959106855467 9.0392572749044575 2 5.2845838935790006 8.3571752017718381 2 7.6605387651986776 5.2693245154511601 2 9.0 12.200438607383113 2 7.8994592984138787 4.39499524446307 2 8.6 8.9629267797136603 2 4.2954123298378581 9.4006228257669697 2 7.5036495262942049 6.1697581843778124 2 </DataArray>
<DataArray Name="forces" NumberOfComponents="3" format="ascii" type="Float32">-0.040674950492609996 -5.6014038991565815 0.0 0.0025592038453157162 0.68216846124697716 0.0 0.026250572963135377 -4.9052604412270506 0.0 4.6319609737493117 -4.6459991785114179 0.0 3.795597390275204 0.61922720474258619 0.0 0.0056025468570463088 0.1860702811076913 0.0 4.5667208491695845 0.36977775684911357 0.0 3.8269118491634591 -3.8864803033498947 0.0 3.6755774472504568 0.52986594444541002 0.0 0.14552116195919435 0.40582591601641438 0.0 3.6755479331142462 0.48150384971402521 0.0 3.2636423567233015 0.45389485717837841 0.0 -0.026287202462452641 0.34805827907582176 0.0 0.079151929451777764 0.242425553969565 0.0 3.8168923407904294 0.28226398330536517 0.0 0.18566821849560833 0.57515041489934038 0.0 0.02850400456973945 0.4454874070510022 0.0 0.22220099167339757 0.38610331123546615 0.0 0.054912973673878263 0.62215601983628011 0.0 0.084261573781762633 0.54288300027311009 0.0 -0.017321226215678442 0.34509252116660205 0.0 5.1296068837342652 0.21984140017489384 0.0 3.3375416493134096 0.57249182774716845 0.0 -0.018831317910937534 0.15202311854033845 0.0 -0.020892327795753285 0.5515306414185045 0.0 0.09491447123131791 0.21963104513558973 0.0 -0.035887406485249684 0.27102810544481049 0.0 0.062732571406506274 0.66326654210898339 0.0 0.026538233199039332 0.24919499091771091 0.0 3.8298598387127867 0.49648376337171612 0.0 3.0940085661730761 0.61594271892655572 0.0 4.2303380540251228 0.36641664638647453 0.0 0.79532947090528239 0.29704526531447717 0.0 0.1049700832653313 0.26568817536528977 0.0 0.086445621361797606 0.2660772804011573 0.0 -0.13403400671292109 0.5185311527099763 0.0 -0.069108972553593495 0.21345969595766723 0.0 3.8883470020638216 0.47031972387304821 0.0 0.080715533456233238 0.30988352427584798 0.0 0.13234714751281357 0.41260298674400364 0.0 4.406502506525694 0.30896320453328974 0.0 4.7992368034569513 0.33612745951216638 0.0 2.2559208522210454 0.4466028249955093 0.0 4.73529618969713 0.14005725604715133 0.0 4.3960443696272105 0.21876570545927435 0.0 -0.096077176014658372 0.37791657365566766 0.0 0.32373064373336113 0.47477156668629394 0.0 0.18396138989079414 0.30176250439409236 0.0 -0.12437554189809297 0.28460824594898382 0.0 -0.26443727474013079 0.042691890995039006 0.0 0.27059689208075632 0.32001953674973599 0.0 0.065824684710959369 0.64242300043996625 0.0 0.21336742127870414 0.58120018909920979 0.0 3.5987376441181973 0.47182581630048842 0.0 -0.261700677160629 0.29745107403860188 0.0 3.9425955653827502 0.74722714129502121 0.0 0.1540352161193439 0.36333923419899572 0.0 -0.0098665808041681347 0.26927805629395024 0.0 </DataArray>
<DataArray Name="radii" format="ascii" type="Float32">1 1.4 1 1 1.4 1 1 1.4 1.4 1 1.4 1.4 1 1 1 1.4 1 1 1.4 1.4 1 1 1.4 1.4 1.4 1 1 1.4 1 1.4 1.4 1.4 1.4 1 1 1.4 1 1.4 1 1 1 1 1.4 1 1 1.4 1.4 1 1 1 1 1.4 1.4 1 1 1.4 1 1 </DataArray>
</PointData>
<CellData/>
</Piece>
</UnstructuredGrid>
</VTKFile>
