<?xml version="1.0" ?>
<VTKFile byte_order="LittleEndian" type="UnstructuredGrid" version="0.1">
<UnstructuredGrid>
<Piece NumberOfCells="0" NumberOfPoints="15">
<Points>
<DataArray NumberOfComponents="3" format="ascii" type="Float32">1 1 2 3.3154042791440803 1 2 1.4 5.0344061414048165 2 4.5082695020678303 9.8561024901868937 2 2.8853321822850506 11.840004590155393 2 6.471764573749339 8.9301427218118405 2 4.2997952652462894 2.9703073629686108 2 6.7967082601073239 14.75026287704422 2 1.4 9.6255714941038963 2 1.7731348733405747 2.7169339256410177 2 5.4297572498591311 12.445727531254621 2 1 12.797304418963877 2 3.7233852972314114 5.0471893087554562 2 8.6 12.538714141739293 2 1 7.294772210962142 2 </DataArray>
</Points>
<Cells>
<DataArray Name="connectivity" format="ascii" type="Int32">0</DataArray>
<DataArray Name="offsets" format="ascii" type="Int32">0</DataArray>
<DataArray Name="types" format="ascii" type="UInt8">1</DataArray>
</Cells>
<PointData>
<DataArray Name="Points" NumberOfComponents="3" format="ascii" type="Float32">1 1 2 3.3154042791440803 1 2 1.4 5.0344061414048165 2 4.5082695020678303 9.8561024901868937 2 2.8853321822850506 11.840004590155393 2 6.471764573749339 8.9301427218118405 2 4.2997952652462894 2.9703073629686108 2 6.7967082601073239 14.75026287704422 2 1.4 9.6255714941038963 2 1.7731348733405747 2.7169339256410177 2 5.4297572498591311 12.445727531254621 2 1 12.797304418963877 2 3.7233852972314114 5.0471893087554562 2 8.6 12.538714141739293 2 1 7.294772210962142 2 </DataArray>
<DataArray Name="forces" NumberOfComponents="3" format="ascii" type="Float32">-0.21627811741260328 -0.47344091704604441 0.0 -0.034010227338066232 -0.25259442355383249 0.0 -0.35769057108144531 0.097250253030550154 0.0 0.0087685194458224092 0.11152477270103883 0.0 -0.00027611830563234463 0.12460271907713794 0.0 0.0017443789172057605 0.040783898611805668 0.0 -0.020310561340176392 0.04436540486364246 0.0 0.061680707971895947 0.10526679590382627 0.0 -0.28951118816802007 0.12251586370753936 0.0 -0.037317018600111357 0.06799239774835239 0.0 -0.00067795952905960744 0.13398674427037355 0.0 -0.25706665928508565 0.12977891657736157 0.0 -0.0098519526965591131 0.037575353426213896 0.0 0.01186125882030304 0.012286288496058661 0.0 -0.078403301360071842 0.091010075073329075 0.0 </DataArray>
<DataArray Name="radii" format="ascii" type="Float32">1 1 1.4 1.4 1.4 1 1.4 1.4 1.4 1.4 1.4 1 1 1.4 1 </DataArray>
</PointData>
<CellData/>
</Piece>
</UnstructuredGrid>
</VTKFile>
