<?xml version="1.0" ?>
<VTKFile byte_order="LittleEndian" type="UnstructuredGrid" version="0.1">
<UnstructuredGrid>
<Piece NumberOfCells="0" NumberOfPoints="9">
<Points>
<DataArray NumberOfComponents="3" format="ascii" type="Float32">5.0999411492109363 1 2 4.8533126430086035 5.5541129640807254 2 7.0453784726393378 1 2 9.0 1 2 8.6 5.4269711537611363 2 3.3784048977608596 7.4439477499585687 2 9.0 2.9789685784580389 2 6.684929712452206 3.3652624132325508 2 8.6 8.3007633277929305 2 </DataArray>
</Points>
<Cells>
<DataArray Name="connectivity" format="ascii" type="Int32">0</DataArray>
<DataArray Name="offsets" format="ascii" type="Int32">0</DataArray>
<DataArray Name="types" format="ascii" type="UInt8">1</DataArray>
</Cells>
<PointData>
<DataArray Name="Points" NumberOfComponents="3" format="ascii" type="Float32">5.0999411492109363 1 2 4.8533126430086035 5.5541129640807254 2 7.0453784726393378 1 2 9.0 1 2 8.6 5.4269711537611363 2 3.3784048977608596 7.4439477499585687 2 9.0 2.9789685784580389 2 6.684929712452206 3.3652624132325508 2 8.6 8.3007633277929305 2 </DataArray>
<DataArray Name="forces" NumberOfComponents="3" format="ascii" type="Float32">0.019602395654170102 -0.10491588295869733 0.0 -0.06133838738047101 -0.14604922557488292 0.0 -0.013424415479859071 -0.0052233755660614683 0.0 0.05210296991440444 -0.016712453462580878 0.0 0.031636277173366541 0.034933915573887274 0.0 -0.062962591151371025 0.059327997873980111 0.0 0.11633367698271989 -0.0036047878242908386 0.0 -0.13413236390016392 -0.007411963834944392 0.0 0.065054090369986009 0.006565775335248894 0.0 </DataArray>
<DataArray Name="radii" format="ascii" type="Float32">1 1.4 1 1 1.4 1 1 1.4 1.4 </DataArray>
</PointData>
<CellData/>
</Piece>
</UnstructuredGrid>
</VTKFile>
