<?xml version="1.0" ?>
<VTKFile byte_order="LittleEndian" type="UnstructuredGrid" version="0.1">
<UnstructuredGrid>
<Piece NumberOfCells="0" NumberOfPoints="19">
<Points>
<DataArray NumberOfComponents="3" format="ascii" type="Float32">5.6927830015846554 1 2 4.5191792975423617 7.8862254023585852 2 7.3997819769477182 1 2 9.0 1 2 8.1801273651420612 6.7098556019632447 2 2.6849908520103645 8.4649376932005911 2 9.0 2.8545825767733883 2 6.5932964685588269 2.5885254753693006 2 9.0 10.353244126827184 2 3.1826413303830488 6.682948928468976 2 9.0 5.0601398812562088 2 6.7888103216756095 5.5569134134759253 2 6.625026527396451 10.93107118365419 2 6.3643036564436732 7.3472792414875245 2 9.0 8.2659901593284939 2 5.5786751644663495 4.1980393311849777 2 7.5284567888574561 9.1902889764640534 2 7.5752199843545354 3.9786922522084862 2 4.9351845145829802 5.9757335786491703 2 </DataArray>
</Points>
<Cells>
<DataArray Name="connectivity" format="ascii" type="Int32">0</DataArray>
<DataArray Name="offsets" format="ascii" type="Int32">0</DataArray>
<DataArray Name="types" format="ascii" type="UInt8">1</DataArray>
</Cells>
<PointData>
<DataArray Name="Points" NumberOfComponents="3" format="ascii" type="Float32">5.6927830015846554 1 2 4.5191792975423617 7.8862254023585852 2 7.3997819769477182 1 2 9.0 1 2 8.1801273651420612 6.7098556019632447 2 2.6849908520103645 8.4649376932005911 2 9.0 2.8545825767733883 2 6.5932964685588269 2.5885254753693006 2 9.0 10.353244126827184 2 3.1826413303830488 6.682948928468976 2 9.0 5.0601398812562088 2 6.7888103216756095 5.5569134134759253 2 6.625026527396451 10.93107118365419 2 6.3643036564436732 7.3472792414875245 2 9.0 8.2659901593284939 2 5.5786751644663495 4.1980393311849777 2 7.5284567888574561 9.1902889764640534 2 7.5752199843545354 3.9786922522084862 2 4.9351845145829802 5.9757335786491703 2 </DataArray>
<DataArray Name="forces" NumberOfComponents="3" format="ascii" type="Float32">-0.010772150659039796 -0.2050116897410823 0.0 -0.010860411804591257 0.035373409077357823 0.0 -0.0068925344542972444 -0.20014171710605824 0.0 0.40149867860121091 -0.1509018983925241 0.0 0.038720886650268585 0.026628449856903824 0.0 -0.0013466966880454293 0.063341759003623099 0.0 0.14915014808211358 0.032110857712306276 0.0 -0.041593388831561884 0.017501307340181765 0.0 0.12416477433052442 0.028129357982240019 0.0 -0.020451183977875112 0.035127351232058505 0.0 0.24267916091505354 -0.014833141967915908 0.0 -0.0014400373212935108 0.047398879918408465 0.0 -0.015291511376961043 0.039218209907388377 0.0 0.017287934921314748 0.052741525496052238 0.0 0.33837839113697232 0.077119305525052972 0.0 -0.023933053227426851 0.039140798189156126 0.0 -0.025896015971897279 0.036467853505641051 0.0 -0.038098732545141123 0.019653977454934746 0.0 0.00073552974971778651 0.054456196545811172 0.0 </DataArray>
<DataArray Name="radii" format="ascii" type="Float32">1 1 1 1 1 1 1 1 1 1 1 1 1 1 1 1 1 1 1 </DataArray>
</PointData>
<CellData/>
</Piece>
</UnstructuredGrid>
</VTKFile>
