<?xml version="1.0" ?>
<VTKFile byte_order="LittleEndian" type="UnstructuredGrid" version="0.1">
<UnstructuredGrid>
<Piece NumberOfCells="0" NumberOfPoints="36">
<Points>
<DataArray NumberOfComponents="3" format="ascii" type="Float32">1.2 1.2 2 4.2238531237513675 1.5999999999999999 2 1.5999999999999999 6.5924606519736972 2 5.3638880077806954 12.381511960027677 2 2.121868903455383 19.079556498442507 2 6.7327011992658958 11.307674958979145 2 5.0535911975365142 3.1411341633795415 2 8.4 19.114381643369782 2 1.5999999999999999 10.391568856359575 2 1.5999999999999999 1.9491013362038072 2 6.216810628570359 15.818844922672808 2 1 16.752489216279269 2 3.8189199223878756 5.8409326679661531 2 8.4 16.405320580810905 2 1.4 8.8129296344732033 2 1.5999999999999999 5.0525371558579728 2 3.5928634883227502 12.264887449032102 2 3.63910633876608 14.370615516994528 2 6.7990531156234528 2.7510307150359297 2 6.3862446577973619 17.866257251007752 2 1.5999999999999999 14.463465727882474 2 2.8876478048343865 1.4 2 4.622576581176288 18.137053413887543 2 7.3366127207725143 14.323531078700684 2 2.3469576773254781 7.45447372176121 2 5.6417316693473945 10.774895515017255 2 4.6194012618136675 16.25894323750093 2 3.4248412091347147 4.4454269492989038 2 6.0277225950103865 19.659298998096826 2 1.5999999999999999 12.32779784158785 2 3.2514409814601111 2.9879442812152366 2 5.3573818441246281 14.234059747667859 2 9.0 14.482843965066413 2 1.5999999999999999 3.6436579771783832 2 5.5633494759127329 1.5999999999999999 2 2.8875386716189286 16.586601440306023 2 </DataArray>
</Points>
<Cells>
<DataArray Name="connectivity" format="ascii" type="Int32">0</DataArray>
<DataArray Name="offsets" format="ascii" type="Int32">0</DataArray>
<DataArray Name="types" format="ascii" type="UInt8">1</DataArray>
</Cells>
<PointData>
<DataArray Name="Points" NumberOfComponents="3" format="ascii" type="Float32">1.2 1.2 2 4.2238531237513675 1.5999999999999999 2 1.5999999999999999 6.5924606519736972 2 5.3638880077806954 12.381511960027677 2 2.121868903455383 19.079556498442507 2 6.7327011992658958 11.307674958979145 2 5.0535911975365142 3.1411341633795415 2 8.4 19.114381643369782 2 1.5999999999999999 10.391568856359575 2 1.5999999999999999 1.9491013362038072 2 6.216810628570359 15.818844922672808 2 1 16.752489216279269 2 3.8189199223878756 5.8409326679661531 2 8.4 16.405320580810905 2 1.4 8.8129296344732033 2 1.5999999999999999 5.0525371558579728 2 3.5928634883227502 12.264887449032102 2 3.63910633876608 14.370615516994528 2 6.7990531156234528 2.7510307150359297 2 6.3862446577973619 17.866257251007752 2 1.5999999999999999 14.463465727882474 2 2.8876478048343865 1.4 2 4.622576581176288 18.137053413887543 2 7.3366127207725143 14.323531078700684 2 2.3469576773254781 7.45447372176121 2 5.6417316693473945 10.774895515017255 2 4.6194012618136675 16.25894323750093 2 3.4248412091347147 4.4454269492989038 2 6.0277225950103865 19.659298998096826 2 1.5999999999999999 12.32779784158785 2 3.2514409814601111 2.9879442812152366 2 5.3573818441246281 14.234059747667859 2 9.0 14.482843965066413 2 1.5999999999999999 3.6436579771783832 2 5.5633494759127329 1.5999999999999999 2 2.8875386716189286 16.586601440306023 2 </DataArray>
<DataArray Name="forces" NumberOfComponents="3" format="ascii" type="Float32">-1.9266377151626284 -2.19765072471961 0.0 0.023771182189795237 -2.6987983762107959 0.0 -2.4139626779102441 0.12340277572326214 0.0 0.033571592239326105 0.42417540874655535 0.0 -0.16424309981141688 0.58642448790532453 0.0 0.0052716841233482192 0.13130731674645157 0.0 0.17644931606589886 0.22987184634510993 0.0 0.36742456793247652 0.57876384500970712 0.0 -1.7235537108220544 0.38122246587521036 0.0 -2.2521402171014486 0.062812570653492772 0.0 0.03268241044879111 0.44833349937176697 0.0 -0.76982598557218507 0.27256108733245848 0.0 0.13997482153579327 0.33100890633532881 0.0 0.94032747121993809 0.48159379583441958 0.0 -2.0970163904139101 0.28861185272983059 0.0 -2.5652329287545532 0.12741988969448759 0.0 0.065656738929403921 0.38366600071871226 0.0 -0.0079199501281499995 0.38968069650463344 0.0 0.18758467727400518 0.24997036891287427 0.0 0.0029992092679433022 0.28722577696436391 0.0 -1.4328768237918141 0.44140519140023948 0.0 0.15601749981321827 -2.6369276203160021 0.0 -0.013057353358854412 0.33826987355461524 0.0 0.037131020055933217 0.24701514390243354 0.0 -0.14527084992087325 0.32058476721468809 0.0 0.036351057131074616 0.19360561588663683 0.0 0.025628971382812171 0.25649019692558206 0.0 0.11641784584974679 0.3444099621838807 0.0 -0.20070029230556705 0.20598525388828132 0.0 -1.5451830949056464 0.4153427738967474 0.0 0.039046633457297752 0.395364316305087 0.0 0.042375077722261706 0.2915590744067677 0.0 0.75685672774951329 0.19890214348219071 0.0 -2.6471756905184156 0.12634629094465344 0.0 0.016437075374124976 -1.9464148191438013 0.0 0.009634265020682653 0.58716061673520203 0.0 </DataArray>
<DataArray Name="radii" format="ascii" type="Float32">1.2 1.5999999999999999 1.5999999999999999 1.5999999999999999 1.5999999999999999 1 1.5999999999999999 1.5999999999999999 1.5999999999999999 1.5999999999999999 1.5999999999999999 1 1.5999999999999999 1.5999999999999999 1.4 1.5999999999999999 1.5999999999999999 1.4 1.5999999999999999 1 1.5999999999999999 1.4 1 1 1.5999999999999999 1 1 1.5999999999999999 1 1.5999999999999999 1.5999999999999999 1.2 1 1.5999999999999999 1.5999999999999999 1.5999999999999999 </DataArray>
</PointData>
<CellData/>
</Piece>
</UnstructuredGrid>
</VTKFile>
