<?xml version="1.0" ?>
<VTKFile byte_order="LittleEndian" type="UnstructuredGrid" version="0.1">
<UnstructuredGrid>
<Piece NumberOfCells="0" NumberOfPoints="7">
<Points>
<DataArray NumberOfComponents="3" format="ascii" type="Float32">4.9770574392229605 1 2 5.6565742501879113 3.2061159646029367 2 6.8827475095480075 1 2 9.0 1 2 8.6 4.9760814037314844 2 4.3252476677052494 5.1478096970400928 2 8.0029972283545892 2.709231290638249 2 </DataArray>
</Points>
<Cells>
<DataArray Name="connectivity" format="ascii" type="Int32">0</DataArray>
<DataArray Name="offsets" format="ascii" type="Int32">0</DataArray>
<DataArray Name="types" format="ascii" type="UInt8">1</DataArray>
</Cells>
<PointData>
<DataArray Name="Points" NumberOfComponents="3" format="ascii" type="Float32">4.9770574392229605 1 2 5.6565742501879113 3.2061159646029367 2 6.8827475095480075 1 2 9.0 1 2 8.6 4.9760814037314844 2 4.3252476677052494 5.1478096970400928 2 8.0029972283545892 2.709231290638249 2 </DataArray>
<DataArray Name="forces" NumberOfComponents="3" format="ascii" type="Float32">0.052670596306079835 -0.076159098079361595 0.0 -0.0084438984934069594 0.018343326755452333 0.0 -0.0054144366715149954 -0.0082955638462215986 0.0 0.024259078390468276 -0.039665136119382868 0.0 0.044730073207578443 0.00805255761978582 0.0 -0.00028592980290856676 0.0058094210486619256 0.0 0.011714841133805404 0.023815015756467363 0.0 </DataArray>
<DataArray Name="radii" format="ascii" type="Float32">1 1.4 1 1 1.4 1 1 </DataArray>
</PointData>
<CellData/>
</Piece>
</UnstructuredGrid>
</VTKFile>
