<?xml version="1.0" ?>
<VTKFile byte_order="LittleEndian" type="UnstructuredGrid" version="0.1">
<UnstructuredGrid>
<Piece NumberOfCells="0" NumberOfPoints="9">
<Points>
<DataArray NumberOfComponents="3" format="ascii" type="Float32">1 1 2 2.8489059170714701 1 2 1.5999999999999999 3.4941871023855802 2 5.3367193075501529 9.9559323539362889 2 1.5999999999999999 9.7586834348459863 2 6.4065612390966464 7.6190356980602756 2 4.1811064862047544 2.9299988105713282 2 7.6090734689900357 12.177819145933688 2 1.5999999999999999 6.5828498436993375 2 </DataArray>
</Points>
<Cells>
<DataArray Name="connectivity" format="ascii" type="Int32">0</DataArray>
<DataArray Name="offsets" format="ascii" type="Int32">0</DataArray>
<DataArray Name="types" format="ascii" type="UInt8">1</DataArray>
</Cells>
<PointData>
<DataArray Name="Points" NumberOfComponents="3" format="ascii" type="Float32">1 1 2 2.8489059170714701 1 2 1.5999999999999999 3.4941871023855802 2 5.3367193075501529 9.9559323539362889 2 1.5999999999999999 9.7586834348459863 2 6.4065612390966464 7.6190356980602756 2 4.1811064862047544 2.9299988105713282 2 7.6090734689900357 12.177819145933688 2 1.5999999999999999 6.5828498436993375 2 </DataArray>
<DataArray Name="forces" NumberOfComponents="3" format="ascii" type="Float32">-0.16157676078462954 -0.035784075454840213 0.0 0.0062563879592764382 -0.21216445359959726 0.0 -0.53803779371366478 0.041899059170355635 0.0 -0.0032449126170143901 0.077408436143145742 0.0 -0.032817443677364902 0.051325474266868593 0.0 -0.0054802609034750177 0.0495122271579687 0.0 0.0068458738499652672 0.04663695780710328 0.0 1.3350263430821074e-05 0.078382746065504813 0.0 -0.10319887853799828 0.050048497503777753 0.0 </DataArray>
<DataArray Name="radii" format="ascii" type="Float32">1 1 1.5999999999999999 1.5999999999999999 1.5999999999999999 1 1.5999999999999999 1.5999999999999999 1.5999999999999999 </DataArray>
</PointData>
<CellData/>
</Piece>
</UnstructuredGrid>
</VTKFile>
