<?xml version="1.0" ?>
<VTKFile byte_order="LittleEndian" type="UnstructuredGrid" version="0.1">
<UnstructuredGrid>
<Piece NumberOfCells="0" NumberOfPoints="9">
<Points>
<DataArray NumberOfComponents="3" format="ascii" type="Float32">1 1 2 2.999998753537211 1 2 1.2 3.1960187916669223 2 5.7195799579017796 8.6315183291559663 2 1.8524407849151852 7.8912083763045677 2 6.7221452903142724 6.6575241663860565 2 3.563599235016822 3.3283344896952554 2 7.9157532947527489 9.6159749785775634 2 1.3371277074209358 5.4917117930692081 2 </DataArray>
</Points>
<Cells>
<DataArray Name="connectivity" format="ascii" type="Int32">0</DataArray>
<DataArray Name="offsets" format="ascii" type="Int32">0</DataArray>
<DataArray Name="types" format="ascii" type="UInt8">1</DataArray>
</Cells>
<PointData>
<DataArray Name="Points" NumberOfComponents="3" format="ascii" type="Float32">1 1 2 2.999998753537211 1 2 1.2 3.1960187916669223 2 5.7195799579017796 8.6315183291559663 2 1.8524407849151852 7.8912083763045677 2 6.7221452903142724 6.6575241663860565 2 3.563599235016822 3.3283344896952554 2 7.9157532947527489 9.6159749785775634 2 1.3371277074209358 5.4917117930692081 2 </DataArray>
<DataArray Name="forces" NumberOfComponents="3" format="ascii" type="Float32">-0.0052676888878178093 -0.056187442988096664 0.0 8.7657897562820608e-07 0.0 0.0 -0.0036803065863381173 0.055349325486441232 0.0 -0.0055479032624307775 0.010826540610035256 0.0 0.008187656858903266 0.038124890509616816 0.0 -0.0015200167675096269 -0.013227338230664618 0.0 -0.014217361212338641 -0.020563234422079385 0.0 -0.014228729565438818 0.036033281723680012 0.0 -0.008187656858903266 -0.038124890509616816 0.0 </DataArray>
<DataArray Name="radii" format="ascii" type="Float32">1 1 1.2 1.2 1.2 1 1.2 1.2 1.2 </DataArray>
</PointData>
<CellData/>
</Piece>
</UnstructuredGrid>
</VTKFile>
