<?xml version="1.0" ?>
<VTKFile byte_order="LittleEndian" type="UnstructuredGrid" version="0.1">
<UnstructuredGrid>
<Piece NumberOfCells="0" NumberOfPoints="13">
<Points>
<DataArray NumberOfComponents="3" format="ascii" type="Float32">5.2037470377649004 1 2 5.5422764239827389 6.2611293548107074 2 7.0505954019572812 1 2 9.0 1 2 7.9416631985606667 6.6854273814560194 2 3.7132086014242902 7.9173462411691169 2 9.0 2.994628409691396 2 6.1839209009606328 2.7537994724442543 2 8.9433494015458788 8.4159494984123295 2 2.9581590703091556 6.1118622403837186 2 9.0 4.9907807175468362 2 7.0646713209954104 4.540134720327389 2 8.0695336445823731 10.210405151867864 2 </DataArray>
</Points>
<Cells>
<DataArray Name="connectivity" format="ascii" type="Int32">0</DataArray>
<DataArray Name="offsets" format="ascii" type="Int32">0</DataArray>
<DataArray Name="types" format="ascii" type="UInt8">1</DataArray>
</Cells>
<PointData>
<DataArray Name="Points" NumberOfComponents="3" format="ascii" type="Float32">5.2037470377649004 1 2 5.5422764239827389 6.2611293548107074 2 7.0505954019572812 1 2 9.0 1 2 7.9416631985606667 6.6854273814560194 2 3.7132086014242902 7.9173462411691169 2 9.0 2.994628409691396 2 6.1839209009606328 2.7537994724442543 2 8.9433494015458788 8.4159494984123295 2 2.9581590703091556 6.1118622403837186 2 9.0 4.9907807175468362 2 7.0646713209954104 4.540134720327389 2 8.0695336445823731 10.210405151867864 2 </DataArray>
<DataArray Name="forces" NumberOfComponents="3" format="ascii" type="Float32">0.15298591849499066 -0.075390114184076859 0.0 0.034413959076917675 0.043997655726928105 0.0 -0.13136434819475351 0.0 0.0 0.13136434819475351 -0.0058472372909559311 0.0 -0.0028556844370512756 0.00099913854911835701 0.0 -0.020835797520332513 -0.035707249506453251 0.0 0.0 0.0048612454548910833 0.0 0.0237505410815513 -0.019888097621999667 0.0 0.0010734925272295336 0.0018584913866110983 0.0 -0.012056255987245516 0.046858073305183982 0.0 0.010488614444626003 0.00020691463511072344 0.0 0.0021066842448326569 0.019235192828996169 0.0 0.0061980802655666762 -0.0045513871832738272 0.0 </DataArray>
<DataArray Name="radii" format="ascii" type="Float32">1 1 1 1 1 1 1 1 1 1 1 1 1 </DataArray>
</PointData>
<CellData/>
</Piece>
</UnstructuredGrid>
</VTKFile>
