<?xml version="1.0" ?>
<VTKFile byte_order="LittleEndian" type="UnstructuredGrid" version="0.1">
<UnstructuredGrid>
<Piece NumberOfCells="0" NumberOfPoints="9">
<Points>
<DataArray NumberOfComponents="3" format="ascii" type="Float32">4.9997702229724377 1 2 4.895687310910251 4.2225409158209555 2 6.9858168329197969 1 2 9.0 1 2 8.000984356382947 4.868142904127625 2 3.8611616243874169 5.8590909438410428 2 8.5345040166236448 2.9532282025467005 2 6.5922879903664988 2.8491166952522087 2 9.0 6.633825687071031 2 </DataArray>
</Points>
<Cells>
<DataArray Name="connectivity" format="ascii" type="Int32">0</DataArray>
<DataArray Name="offsets" format="ascii" type="Int32">0</DataArray>
<DataArray Name="types" format="ascii" type="UInt8">1</DataArray>
</Cells>
<PointData>
<DataArray Name="Points" NumberOfComponents="3" format="ascii" type="Float32">4.9997702229724377 1 2 4.895687310910251 4.2225409158209555 2 6.9858168329197969 1 2 9.0 1 2 8.000984356382947 4.868142904127625 2 3.8611616243874169 5.8590909438410428 2 8.5345040166236448 2.9532282025467005 2 6.5922879903664988 2.8491166952522087 2 9.0 6.633825687071031 2 </DataArray>
<DataArray Name="forces" NumberOfComponents="3" format="ascii" type="Float32">0.0002260915788161455 0.0 0.0 -0.056067640536581628 0.046078197045608588 0.0 -0.01972880870938433 -0.014120265382319535 0.0 0.026269002967285869 -0.010998953483917509 0.0 0.0 0.0 0.0 0.0 0.0 0.0 -0.0026179169022000565 0.010998953483917509 0.0 0.052145363180880144 -0.031957931663289051 0.0 0.0 0.0 0.0 </DataArray>
<DataArray Name="radii" format="ascii" type="Float32">1 1 1 1 1 1 1 1 1 </DataArray>
</PointData>
<CellData/>
</Piece>
</UnstructuredGrid>
</VTKFile>
