<?xml version="1.0" ?>
<VTKFile byte_order="LittleEndian" type="UnstructuredGrid" version="0.1">
<UnstructuredGrid>
<Piece NumberOfCells="0" NumberOfPoints="39">
<Points>
<DataArray NumberOfComponents="3" format="ascii" type="Float32">6.383320423094454 1 2 5.0671716724737808 10.11532441748682 2 7.7938273569066787 1 2 9.0 1 2 8.6 8.842971677982808 2 2.7652808335807517 9.1678479310456886 2 9.0 2.3210165770514304 2 8.6 1.4 2 8.6 11.170332454597606 2 3.8069294601240027 8.0140068865569187 2 8.6 5.8115707617897652 2 8.6 6.8133751979400161 2 6.4224415546932736 13.789486187683242 2 6.5864207509560284 9.962530875215597 2 9.0 9.9578100545509045 2 5.1234623862936326 6.7345584155976237 2 7.2365958450434542 10.624669516633979 2 6.2799484541015431 4.1582774288295132 2 5.5458517409767483 7.8089565188777081 2 3.2732001152615839 11.430718167501917 2 7.8529947350784575 9.9246374310331422 2 9.0 3.8332067485315502 2 8.6 13.73498492876327 2 7.4110706759900058 3.9376195881434821 2 6.7275868919863946 7.926931473698569 2 5.9166617063438993 5.025514689402482 2 6.6137497477596279 5.7582966568346157 2 4.76336742278336 8.7701286966199632 2 7.3687494424941464 8.8510750899758932 2 8.6 3.0495921214420636 2 8.6 12.225939495719299 2 8.6 4.7548188809668952 2 8.6 7.8294523892092887 2 6.3631748292572476 6.5369664707741677 2 6.2024005275677556 9.1466816580221035 2 3.8475167082423667 9.6967371853238316 2 7.4830369083627266 13.200006584325807 2 7.4675586672752869 5.2912052733967174 2 7.3012827152541924 7.0141267530371296 2 </DataArray>
</Points>
<Cells>
<DataArray Name="connectivity" format="ascii" type="Int32">0</DataArray>
<DataArray Name="offsets" format="ascii" type="Int32">0</DataArray>
<DataArray Name="types" format="ascii" type="UInt8">1</DataArray>
</Cells>
<PointData>
<DataArray Name="Points" NumberOfComponents="3" format="ascii" type="Float32">6.383320423094454 1 2 5.0671716724737808 10.11532441748682 2 7.7938273569066787 1 2 9.0 1 2 8.6 8.842971677982808 2 2.7652808335807517 9.1678479310456886 2 9.0 2.3210165770514304 2 8.6 1.4 2 8.6 11.170332454597606 2 3.8069294601240027 8.0140068865569187 2 8.6 5.8115707617897652 2 8.6 6.8133751979400161 2 6.4224415546932736 13.789486187683242 2 6.5864207509560284 9.962530875215597 2 9.0 9.9578100545509045 2 5.1234623862936326 6.7345584155976237 2 7.2365958450434542 10.624669516633979 2 6.2799484541015431 4.1582774288295132 2 5.5458517409767483 7.8089565188777081 2 3.2732001152615839 11.430718167501917 2 7.8529947350784575 9.9246374310331422 2 9.0 3.8332067485315502 2 8.6 13.73498492876327 2 7.4110706759900058 3.9376195881434821 2 6.7275868919863946 7.926931473698569 2 5.9166617063438993 5.025514689402482 2 6.6137497477596279 5.7582966568346157 2 4.76336742278336 8.7701286966199632 2 7.3687494424941464 8.8510750899758932 2 8.6 3.0495921214420636 2 8.6 12.225939495719299 2 8.6 4.7548188809668952 2 8.6 7.8294523892092887 2 6.3631748292572476 6.5369664707741677 2 6.2024005275677556 9.1466816580221035 2 3.8475167082423667 9.6967371853238316 2 7.4830369083627266 13.200006584325807 2 7.4675586672752869 5.2912052733967174 2 7.3012827152541924 7.0141267530371296 2 </DataArray>
<DataArray Name="forces" NumberOfComponents="3" format="ascii" type="Float32">-0.1700151105125742 -2.7205101258655766 0.0 0.051929457703646431 0.29944143525095634 0.0 -0.01955597526984082 -2.3982986713583556 0.0 2.5773111595247831 -2.374894415630854 0.0 2.2899081413505598 0.31078064868044075 0.0 -0.026302091443329567 0.20837988646120853 0.0 2.4457633905014449 0.099785593686528812 0.0 1.6166750685661191 -1.1721660895840016 0.0 1.8971478192132571 0.34977747206036414 0.0 0.055956804914950267 0.2011692683880435 0.0 2.5734524908593639 0.28362768684943851 0.0 2.4338124194437496 0.29935758691891856 0.0 0.019727997847507006 0.29197487701290392 0.0 -0.0035413819266439384 0.20179692818124395 0.0 1.8054017733407792 0.21179036595495568 0.0 0.01388405203922316 0.30135207434529093 0.0 0.038876056767878198 0.20698574270200357 0.0 0.11768755281449308 0.13695792237062643 0.0 -0.051571289885413929 0.25764289229549986 0.0 0.0046255162448804524 0.39914693238210164 0.0 0.028521060196049081 0.19567714635655198 0.0 2.690604867443422 0.16971536596537296 0.0 1.8469154017593308 0.4436644785835791 0.0 0.04320598800659714 0.0058007752190737394 0.0 -0.0056532421412748279 0.24183884535031852 0.0 0.054303764480115854 0.13452852291133746 0.0 -0.042452209465664359 0.067908192027699155 0.0 0.036193907448823337 0.3534645621616157 0.0 -0.0059745873971033423 0.18913671170375868 0.0 2.032384810613578 0.27850810154314776 0.0 2.0155413298341429 0.38708137143280974 0.0 2.3625253137233662 0.29062123508489013 0.0 2.2993583432796756 0.30505584603599301 0.0 0.1168868172373676 0.17505652751003153 0.0 0.12178019389550387 0.10800207520357502 0.0 -0.00027807723226445924 0.33657566962980495 0.0 -0.026425599883852735 0.087501466156553298 0.0 0.035317900941593552 0.19682827034860809 0.0 0.023912064569949487 0.15008186878114038 0.0 </DataArray>
<DataArray Name="radii" format="ascii" type="Float32">1 1.4 1 1 1.4 1 1 1.4 1.4 1 1.4 1.4 1 1 1 1.4 1 1 1.4 1.4 1 1 1.4 1.4 1.4 1 1 1.4 1 1.4 1.4 1.4 1.4 1 1 1.4 1 1.4 1 </DataArray>
</PointData>
<CellData/>
</Piece>
</UnstructuredGrid>
</VTKFile>
