<?xml version="1.0" ?>
<VTKFile byte_order="LittleEndian" type="UnstructuredGrid" version="0.1">
<UnstructuredGrid>
<Piece NumberOfCells="0" NumberOfPoints="6">
<Points>
<DataArray NumberOfComponents="3" format="ascii" type="Float32">1 1 2 2.9611998071719712 1 2 1.7512637538140789 3.4825853645696081 2 6.5375066872842602 8.426795294162007 2 1.7630974574714728 6.6975493622839286 2 5.8897168917487681 6.0245276654484901 2 </DataArray>
</Points>
<Cells>
<DataArray Name="connectivity" format="ascii" type="Int32">0</DataArray>
<DataArray Name="offsets" format="ascii" type="Int32">0</DataArray>
<DataArray Name="types" format="ascii" type="UInt8">1</DataArray>
</Cells>
<PointData>
<DataArray Name="Points" NumberOfComponents="3" format="ascii" type="Float32">1 1 2 2.9611998071719712 1 2 1.7512637538140789 3.4825853645696081 2 6.5375066872842602 8.426795294162007 2 1.7630974574714728 6.6975493622839286 2 5.8897168917487681 6.0245276654484901 2 </DataArray>
<DataArray Name="forces" NumberOfComponents="3" format="ascii" type="Float32">-0.046348535905592993 -0.009334409196502148 0.0 0.0034526246861457111 0.0 0.0 0.0028130531902858321 0.009334409196502148 0.0 0.0 0.0 0.0 0.0 0.0 0.0 0.02595648636391798 0.072912636149718907 0.0 </DataArray>
<DataArray Name="radii" format="ascii" type="Float32">1 1 1.5999999999999999 1.5999999999999999 1.5999999999999999 1 </DataArray>
</PointData>
<CellData/>
</Piece>
</UnstructuredGrid>
</VTKFile>
