<?xml version="1.0" ?>
<VTKFile byte_order="LittleEndian" type="UnstructuredGrid" version="0.1">
<UnstructuredGrid>
<Piece NumberOfCells="0" NumberOfPoints="15">
<Points>
<DataArray NumberOfComponents="3" format="ascii" type="Float32">1 1 2 3.3796176650375003 1 2 1.2 4.7029197769457154 2 4.6792478368836159 9.5275840426084297 2 2.6973809983676711 10.738538503434567 2 6.6780469482364122 8.9170287914316901 2 4.5176441813857338 2.9361668595659816 2 6.7940699183545474 13.799760819202215 2 1.2 8.9301266173469926 2 2.2050828315148649 2.717347966157019 2 5.7377782415499272 11.657131125282499 2 1 12.05152675411761 2 4.265482427068422 5.0210572349836937 2 8.8 12.4991774960182 2 1 6.8138917872289895 2 </DataArray>
</Points>
<Cells>
<DataArray Name="connectivity" format="ascii" type="Int32">0</DataArray>
<DataArray Name="offsets" format="ascii" type="Int32">0</DataArray>
<DataArray Name="types" format="ascii" type="UInt8">1</DataArray>
</Cells>
<PointData>
<DataArray Name="Points" NumberOfComponents="3" format="ascii" type="Float32">1 1 2 3.3796176650375003 1 2 1.2 4.7029197769457154 2 4.6792478368836159 9.5275840426084297 2 2.6973809983676711 10.738538503434567 2 6.6780469482364122 8.9170287914316901 2 4.5176441813857338 2.9361668595659816 2 6.7940699183545474 13.799760819202215 2 1.2 8.9301266173469926 2 2.2050828315148649 2.717347966157019 2 5.7377782415499272 11.657131125282499 2 1 12.05152675411761 2 4.265482427068422 5.0210572349836937 2 8.8 12.4991774960182 2 1 6.8138917872289895 2 </DataArray>
<DataArray Name="forces" NumberOfComponents="3" format="ascii" type="Float32">-0.060442356376813083 -0.085559968386341098 0.0 -0.011709704241389715 -0.10150595851698675 0.0 -0.11909694905288573 0.032968941851045666 0.0 -0.0068096132034274927 0.015890357013094963 0.0 0.011417376232542339 0.048667809618211322 0.0 0.0020805779248919522 0.029431288955835636 0.0 -0.0016947889118407895 0.011216032808490359 0.0 -0.0033838928817594731 0.015249849852808564 0.0 -0.061492655999946737 0.050995029348691531 0.0 -0.0075002429004336069 0.020300792672719087 0.0 -0.029138182137690059 0.028108108684116562 0.0 -0.043512571461259079 0.03392188816832982 0.0 -0.0074662546507020811 0.0078439649701349465 0.0 0.02302210878934486 0.018875994447533753 0.0 -0.10374489122241731 0.039656013588732643 0.0 </DataArray>
<DataArray Name="radii" format="ascii" type="Float32">1 1 1.2 1.2 1.2 1 1.2 1.2 1.2 1.2 1.2 1 1 1.2 1 </DataArray>
</PointData>
<CellData/>
</Piece>
</UnstructuredGrid>
</VTKFile>
