<?xml version="1.0" ?>
<VTKFile byte_order="LittleEndian" type="UnstructuredGrid" version="0.1">
<UnstructuredGrid>
<Piece NumberOfCells="0" NumberOfPoints="19">
<Points>
<DataArray NumberOfComponents="3" format="ascii" type="Float32">5.8729190795236059 1 2 4.4140819154966566 8.7398374884327374 2 7.466727537739752 1 2 9.0 1 2 8.6 7.1570413174584067 2 2.5652434292147412 8.6650235880904578 2 9.0 2.6862159899142619 2 7.3780099627757796 2.5584151724157778 2 8.6 11.117569494445855 2 2.9967433946175763 7.0642575364691993 2 8.6 4.6963215897664243 2 6.8186474168763471 5.9978430383821761 2 6.6874494439830787 11.295100514252601 2 6.4572842177312584 7.8892659230434896 2 9.0 9.0734340678605889 2 4.9759758691226663 4.4861009412770123 2 7.5726383190172495 9.1690019092044253 2 6.7578246002359386 4.0906158178425578 2 4.7436819687665137 6.5936699553716709 2 </DataArray>
</Points>
<Cells>
<DataArray Name="connectivity" format="ascii" type="Int32">0</DataArray>
<DataArray Name="offsets" format="ascii" type="Int32">0</DataArray>
<DataArray Name="types" format="ascii" type="UInt8">1</DataArray>
</Cells>
<PointData>
<DataArray Name="Points" NumberOfComponents="3" format="ascii" type="Float32">5.8729190795236059 1 2 4.4140819154966566 8.7398374884327374 2 7.466727537739752 1 2 9.0 1 2 8.6 7.1570413174584067 2 2.5652434292147412 8.6650235880904578 2 9.0 2.6862159899142619 2 7.3780099627757796 2.5584151724157778 2 8.6 11.117569494445855 2 2.9967433946175763 7.0642575364691993 2 8.6 4.6963215897664243 2 6.8186474168763471 5.9978430383821761 2 6.6874494439830787 11.295100514252601 2 6.4572842177312584 7.8892659230434896 2 9.0 9.0734340678605889 2 4.9759758691226663 4.4861009412770123 2 7.5726383190172495 9.1690019092044253 2 6.7578246002359386 4.0906158178425578 2 4.7436819687665137 6.5936699553716709 2 </DataArray>
<DataArray Name="forces" NumberOfComponents="3" format="ascii" type="Float32">0.0064373964562177144 -0.93349348397853071 0.0 0.014178600727844118 0.14459360926222964 0.0 -0.013499133896784886 -0.84019200634342561 0.0 0.57671876295557922 -0.41827829012638951 0.0 0.66797072660199541 0.10499391089458648 0.0 -0.01885442265178125 0.045806529131763168 0.0 0.83597880390135559 0.030517073386436 0.0 0.031743242792884874 0.099850857346320043 0.0 0.69876982157049305 0.13754576340636215 0.0 0.026717565824033618 0.058629774960910458 0.0 1.019313912959575 0.091023143953836677 0.0 -0.0017711079706101973 0.095033909606307199 0.0 0.00028548405109146691 0.13034178581268419 0.0 -3.7101134661904345e-05 0.081735667146310642 0.0 0.71896721270506925 0.084101563821852715 0.0 -0.06635418320236991 0.12304434937230979 0.0 0.0098497337928687978 0.054880136861165024 0.0 -0.053368178484923923 0.065994625394797196 0.0 0.012358642654879071 0.13475131057637924 0.0 </DataArray>
<DataArray Name="radii" format="ascii" type="Float32">1 1.4 1 1 1.4 1 1 1.4 1.4 1 1.4 1.4 1 1 1 1.4 1 1 1.4 </DataArray>
</PointData>
<CellData/>
</Piece>
</UnstructuredGrid>
</VTKFile>
