<?xml version="1.0" ?>
<VTKFile byte_order="LittleEndian" type="UnstructuredGrid" version="0.1">
<UnstructuredGrid>
<Piece NumberOfCells="0" NumberOfPoints="63">
<Points>
<DataArray NumberOfComponents="3" format="ascii" type="Float32">1 2.1930363607572287 2 4.7362621533960576 1.4 2 1.4 6.7357456902726804 2 6.0551019183980355 12.481148859536587 2 1.9556756502306929 21.581512656640545 2 6.9970198167194972 11.804790166589948 2 5.2563033775087087 3.7320187547755856 2 8.469918111571145 21.258040876105145 2 1.4 11.008768830168583 2 1.4 2.9380670144868417 2 5.9725528648863753 16.831978996538481 2 1.4 17.19030840524869 2 4.0873835037406341 6.3061301560759873 2 8.6 16.863861319448308 2 1.2 8.8523535933686368 2 1.4 5.7262211460769414 2 2.8031298527726269 12.981049452091714 2 3.9947620172854101 15.440046183356289 2 7.0733309569097642 1.4 2 5.4760826737133526 19.151617780488507 2 1.4 15.010187914840822 2 3.016091828045973 1.2430638314800935 2 4.5183470625030386 20.596352892234464 2 7.238943233594779 14.829879723456054 2 2.6243595703984397 8.0425503708759045 2 5.6441711541486619 11.156963617115911 2 4.5979982152123373 17.429454288170739 2 3.8529154522793325 4.8940297509073414 2 6.2199126790712267 20.999193927824479 2 1.4 13.533936320764321 2 2.9148640168124382 2.816976704497494 2 5.4295747913322767 15.360256657835391 2 9.0 15.036226634780537 2 1.4 3.7804156491238374 2 5.6281692253670865 1.4 2 2.990797052891129 17.280026606622364 2 3.857280461036213 1.4 2 3.0339331013452475 6.9539677854394029 2 4.6682502055572588 13.422762750052895 2 1.4 19.212593377097544 2 4.0020343331158879 3.6279810517951812 2 8.6 18.831181212831439 2 2.627215761181787 10.353942219717913 2 1.4 1.4 2 7.382655844544038 16.309738902969031 2 5.0033112933124038 5.27238397219012 2 7.0409147354261297 18.932114343282464 2 2.7804779169466718 3.954405147659509 2 4.3543318930693209 12.076432440138319 2 7.342547689592779 2.7564269953768177 2 2.4881070816188546 15.554878140257815 2 1.4 7.8530678499406283 2 2.757712170387089 5.5923907353780233 2 1.4 12.270175787428903 2 4.7297309330529584 2.6114960129764442 2 1.4 4.7661111364380977 2 6.2603350362068513 2.8063470170825644 2 3.2277458662669583 19.419578301543709 2 1.2 9.9093362523045965 2 3.4615852011803736 14.140801735610948 2 2.3907565867934877 1.2 2 1 1 2 5.3613547988161194 14.388244288965847 2 </DataArray>
</Points>
<Cells>
<DataArray Name="connectivity" format="ascii" type="Int32">0</DataArray>
<DataArray Name="offsets" format="ascii" type="Int32">0</DataArray>
<DataArray Name="types" format="ascii" type="UInt8">1</DataArray>
</Cells>
<PointData>
<DataArray Name="Points" NumberOfComponents="3" format="ascii" type="Float32">1 2.1930363607572287 2 4.7362621533960576 1.4 2 1.4 6.7357456902726804 2 6.0551019183980355 12.481148859536587 2 1.9556756502306929 21.581512656640545 2 6.9970198167194972 11.804790166589948 2 5.2563033775087087 3.7320187547755856 2 8.469918111571145 21.258040876105145 2 1.4 11.008768830168583 2 1.4 2.9380670144868417 2 5.9725528648863753 16.831978996538481 2 1.4 17.19030840524869 2 4.0873835037406341 6.3061301560759873 2 8.6 16.863861319448308 2 1.2 8.8523535933686368 2 1.4 5.7262211460769414 2 2.8031298527726269 12.981049452091714 2 3.9947620172854101 15.440046183356289 2 7.0733309569097642 1.4 2 5.4760826737133526 19.151617780488507 2 1.4 15.010187914840822 2 3.016091828045973 1.2430638314800935 2 4.5183470625030386 20.596352892234464 2 7.238943233594779 14.829879723456054 2 2.6243595703984397 8.0425503708759045 2 5.6441711541486619 11.156963617115911 2 4.5979982152123373 17.429454288170739 2 3.8529154522793325 4.8940297509073414 2 6.2199126790712267 20.999193927824479 2 1.4 13.533936320764321 2 2.9148640168124382 2.816976704497494 2 5.4295747913322767 15.360256657835391 2 9.0 15.036226634780537 2 1.4 3.7804156491238374 2 5.6281692253670865 1.4 2 2.990797052891129 17.280026606622364 2 3.857280461036213 1.4 2 3.0339331013452475 6.9539677854394029 2 4.6682502055572588 13.422762750052895 2 1.4 19.212593377097544 2 4.0020343331158879 3.6279810517951812 2 8.6 18.831181212831439 2 2.627215761181787 10.353942219717913 2 1.4 1.4 2 7.382655844544038 16.309738902969031 2 5.0033112933124038 5.27238397219012 2 7.0409147354261297 18.932114343282464 2 2.7804779169466718 3.954405147659509 2 4.3543318930693209 12.076432440138319 2 7.342547689592779 2.7564269953768177 2 2.4881070816188546 15.554878140257815 2 1.4 7.8530678499406283 2 2.757712170387089 5.5923907353780233 2 1.4 12.270175787428903 2 4.7297309330529584 2.6114960129764442 2 1.4 4.7661111364380977 2 6.2603350362068513 2.8063470170825644 2 3.2277458662669583 19.419578301543709 2 1.2 9.9093362523045965 2 3.4615852011803736 14.140801735610948 2 2.3907565867934877 1.2 2 1 1 2 5.3613547988161194 14.388244288965847 2 </DataArray>
<DataArray Name="forces" NumberOfComponents="3" format="ascii" type="Float32">-2.3683233931572993 0.21472785640405401 0.0 -0.10676235581366367 -2.9850712436399971 0.0 -2.6579573783682973 0.24738602330953896 0.0 0.00070094063248363203 0.34905872895239676 0.0 -0.064381597418475045 0.61264851473952153 0.0 0.02058778340258538 0.26421384400102776 0.0 -0.036633818460404255 0.39667905381565194 0.0 0.15170730658674822 0.44825805523615747 0.0 -2.1032561839307782 0.33523642138121001 0.0 -1.9399612440206719 0.25431038501964665 0.0 0.040791313519979 0.4766052138158377 0.0 -1.6697618783650301 0.47280004633571848 0.0 0.032921434659825666 0.054326614225941872 0.0 1.7160306793955959 0.41699823470050457 0.0 -2.190172851555471 0.21877348858322554 0.0 -2.7201355532159619 0.26233091016896215 0.0 0.049682292964523755 0.40878541858851802 0.0 0.059769435654877412 0.38236677416255799 0.0 -0.057192539393136732 -1.5624938313859214 0.0 -0.15235990189060156 0.51314524657833072 0.0 -1.9600642914634117 0.4480744266361153 0.0 0.22677484413181825 -1.5869218301912791 0.0 -0.019896296799238544 0.77458584037681066 0.0 0.046699317954692454 0.32703489941873304 0.0 0.039543750823062107 0.25817048116457042 0.0 0.05517495130711525 0.29089197136797318 0.0 0.033559867923992015 0.5573805338422223 0.0 -0.068413569025585985 0.17112828001820074 0.0 0.12371658872121531 0.40173884166104323 0.0 -1.8774727679794156 0.38884630063219117 0.0 0.031699563450221735 -0.15624494787592802 0.0 0.024770873479946748 0.31874251317762969 0.0 1.307735157658434 0.33733956110694729 0.0 -2.6691259311575051 0.34926839381116492 0.0 -0.11526732280367374 -2.2770479719895267 0.0 0.00062187276427425053 0.49483912116538853 0.0 0.0010768588460285944 -2.2869418319998118 0.0 0.10255261169252096 0.33029548442494011 0.0 0.091996286736860555 0.35648942109302351 0.0 -1.2299757058230356 0.54419564960884204 0.0 -0.097283644131525793 0.0053583308826203879 0.0 1.257475994795485 0.38369679745144186 0.0 0.048183490348132185 0.35017247898194281 0.0 -1.4132578073228508 -1.873552827437601 0.0 -0.031071183705259065 0.40854318602331113 0.0 0.031097673652566202 0.21035726113015468 0.0 -0.03059016087835718 0.50361722768960226 0.0 0.041268757914496357 -0.16461434235998806 0.0 0.086018223146104064 0.33023095188851792 0.0 0.060002209746124802 -0.058540188536527586 0.0 0.093386537084360954 0.39265139864568854 0.0 -2.459610246387046 0.26252101660653471 0.0 0.034773580559130157 0.17819649341612087 0.0 -2.0421152149660435 0.36511723628729698 0.0 0.20561026942396565 0.2787297654838013 0.0 -2.6754069019316393 0.28359054697006392 0.0 0.03732002406807565 0.30419587796608871 0.0 0.025473210682133596 0.58095242475931375 0.0 -1.9954687781500913 0.24099769545279756 0.0 0.067366578726919424 0.33924437796972573 0.0 -0.39730310178054384 -2.3290698386581616 0.0 -2.3224789103658114 -2.6597475586989785 0.0 0.027768348402339882 0.33325575253649986 0.0 </DataArray>
<DataArray Name="radii" format="ascii" type="Float32">1 1.4 1.4 1.4 1.4 1.2 1.4 1.4 1.4 1.4 1.4 1.4 1.4 1.4 1.2 1.4 1.4 1.2 1.4 1.2 1.4 1.2 1 1.4 1.4 1.4 1.5999999999999999 1.4 1 1.4 1.4 1 1 1.4 1.4 1.4 1.4 1.4 1.4 1.4 1.4 1.4 1.4 1.4 1.4 1.4 1.4 1.4 1.4 1.4 1.4 1.4 1.4 1.4 1.4 1.4 1.4 1.4 1.2 1.2 1.2 1 1 </DataArray>
</PointData>
<CellData/>
</Piece>
</UnstructuredGrid>
</VTKFile>
