<?xml version="1.0" ?>
<VTKFile byte_order="LittleEndian" type="UnstructuredGrid" version="0.1">
<UnstructuredGrid>
<Piece NumberOfCells="0" NumberOfPoints="6">
<Points>
<DataArray NumberOfComponents="3" format="ascii" type="Float32">1 1 2 2.9613451500471322 1 2 1.2 3.1853017820877012 2 6.4270907794987036 7.2014602812341169 2 2.4645847687343934 5.1967164180608192 2 6.6116173702174397 4.9803352260218539 2 </DataArray>
</Points>
<Cells>
<DataArray Name="connectivity" format="ascii" type="Int32">0</DataArray>
<DataArray Name="offsets" format="ascii" type="Int32">0</DataArray>
<DataArray Name="types" format="ascii" type="UInt8">1</DataArray>
</Cells>
<PointData>
<DataArray Name="Points" NumberOfComponents="3" format="ascii" type="Float32">1 1 2 2.9613451500471322 1 2 1.2 3.1853017820877012 2 6.4270907794987036 7.2014602812341169 2 2.4645847687343934 5.1967164180608192 2 6.6116173702174397 4.9803352260218539 2 </DataArray>
<DataArray Name="forces" NumberOfComponents="3" format="ascii" type="Float32">-0.060404408763064577 -0.065329227506220763 0.0 0.0064240377920956604 0.0 0.0 -0.018904897357683817 0.026622688668638719 0.0 -0.00094980042879025698 0.0098425503043996099 0.0 -0.0059557786356970351 0.041177354842912899 0.0 -0.011590322565371196 -0.0078512074137356402 0.0 </DataArray>
<DataArray Name="radii" format="ascii" type="Float32">1 1 1.2 1.2 1.2 1 </DataArray>
</PointData>
<CellData/>
</Piece>
</UnstructuredGrid>
</VTKFile>
