<?xml version="1.0" ?>
<VTKFile byte_order="LittleEndian" type="UnstructuredGrid" version="0.1">
<UnstructuredGrid>
<Piece NumberOfCells="0" NumberOfPoints="123">
<Points>
<DataArray NumberOfComponents="3" format="ascii" type="Float32">1 2.7544313377510736 2 5.0811128923827953 1.4 2 1.4 7.0914249332996127 2 5.952248036336127 13.458481555659587 2 2.4882941872803315 23.676402491998097 2 7.4725258110965385 12.528743076761522 2 5.9703763678208315 4.5345644280351758 2 8.6 22.291379529407173 2 1.4 11.539725595880709 2 1.4 3.7207799653863241 2 6.4070778283807224 17.631275239846957 2 1.4 18.761522585349013 2 4.7166100571289968 6.9340050269531535 2 8.6 16.843397223322977 2 1.2 9.0276926304598675 2 1.4 5.9130226397458214 2 3.1735797192025652 13.753084815261429 2 4.4095638680742493 15.850012549924795 2 7.3167710924663876 1.4 2 4.9657873481355388 21.164507100535268 2 1.4 15.560925822144911 2 3.3183669313274118 1.2 2 4.4115111091974324 23.072248225822491 2 8.6 14.739971746181441 2 3.1213889252252778 8.2836256895536859 2 5.881235096276126 11.194549165965636 2 4.6600906003889859 17.881428175476398 2 4.8094436777532916 4.9736396850650557 2 5.9479591282126023 22.97353929220532 2 1.4 14.341778625725441 2 2.8911303336239471 3.4247081485384241 2 5.1583648824569934 16.339776476724836 2 8.6 15.744626551537751 2 1.4 4.2415942946939529 2 5.5967464472621851 1.4 2 3.5255262666847149 17.984891319127733 2 4.5261978442368154 1.4 2 3.5744664250723961 7.4263255011533253 2 5.0582874714222479 14.583553814053149 2 1.4 20.277523842775395 2 3.9137092032348031 3.7989631317136991 2 8.6 20.568196454281797 2 2.8717267950340997 10.778376889907571 2 1.4 1.4 2 7.4292567604621302 17.584978146905943 2 5.5725679198979918 5.4155603521269455 2 7.3543598433894175 19.73353271265438 2 2.8948805343686264 4.1487351242322994 2 5.2440893072711106 12.115957368706482 2 7.8749665921326573 2.1795734278738292 2 2.483453704589158 17.14580070464001 2 1.4 8.3781842526762595 2 2.7197701475040978 6.0981892688248767 2 1.4 12.998347354970839 2 5.0956484755431619 2.9818050923546182 2 1.4 4.8041841765867108 2 6.7489191582866424 3.0965219534904032 2 3.5303103386751005 21.49538867675545 2 1.2 9.6659283258524802 2 3.6017406959992968 15.081109968956978 2 2.1275907767975477 1.2 2 1 1 2 5.5432881376587293 15.491114987602938 2 4.913988745857603 19.224895420293148 2 3.8908771339409896 1.4 2 1.4 7.7649620140247197 2 6.1657730038814895 12.407456239732756 2 1 22.545690321955995 2 5.9970697460977842 3.6589686255105267 2 7.7124917808972784 24.158374289813878 2 2.6400169414320329 11.926820691505222 2 1.4 2.1559599811822543 2 6.2485249219951893 19.149709513484684 2 1.4 17.586350099177704 2 4.5053403381645918 7.88645847955019 2 8.6 17.99663046580341 2 1.4 6.4858727737869666 2 4.0630034390417231 14.139833833397475 2 8.6 1.4 2 2.0177589057931375 14.964970737795728 2 6.601041698833729 15.940636155239085 2 2.4995008520344606 7.4380869555186022 2 5.9376729455159527 10.191711750076694 2 5.0638414208699762 3.9341778013586826 2 1.5478283245289393 13.641095367825287 2 3.9969959248807165 3.1036240824324119 2 1.4 3.1961805395051313 2 6.1308892308735992 1.4 2 2.3607501573592753 19.237689802990584 2 3.2991286311127439 2.2149273017374318 2 3.5431696412232565 6.54642532502944 2 5.007227284425154 13.356171453854831 2 1.6655064640991779 21.467660750245432 2 2.8727731823872658 5.1062920813682018 2 8.6 19.234025203854767 2 1.4 10.876923960284621 2 2.776500315520241 1.4 2 7.4681536802903397 15.71531211564154 2 6.0105765388293202 6.2735619759069481 2 7.1574981857306286 21.683039109700882 2 3.7676681096519515 4.6898578595058611 2 3.3785953388587586 12.808479889220113 2 8.6 3.1034017204509712 2 1.4 16.484113145369314 2 2.261191811712747 8.9292439507228085 2 3.7693352196315231 5.6773724082117942 2 1.4 12.262388915627863 2 5.9711430813853381 2.6993528249614993 2 1.4 5.3441344472329506 2 6.6862160172313798 1.8269469107304377 2 3.6119783113630648 19.898066705224466 2 6.9915979157628119 11.784246018411567 2 1.2 10.265269520864781 2 3.7187081263227193 16.678275299863575 2 6.0680035962758767 20.902965501330392 2 4.2679319050425679 2.233859351068896 2 2.6668492356104481 9.8926717897651031 2 3.0472374018886597 15.795692360255821 2 1.2 1.2 2 2.3827340201305529 2.9038861908572526 2 5.6902956366110944 16.988321530232451 2 2.3422770601142129 2.1117956438233123 2 6.2486806887032591 14.799474630465767 2 </DataArray>
</Points>
<Cells>
<DataArray Name="connectivity" format="ascii" type="Int32">0</DataArray>
<DataArray Name="offsets" format="ascii" type="Int32">0</DataArray>
<DataArray Name="types" format="ascii" type="UInt8">1</DataArray>
</Cells>
<PointData>
<DataArray Name="Points" NumberOfComponents="3" format="ascii" type="Float32">1 2.7544313377510736 2 5.0811128923827953 1.4 2 1.4 7.0914249332996127 2 5.952248036336127 13.458481555659587 2 2.4882941872803315 23.676402491998097 2 7.4725258110965385 12.528743076761522 2 5.9703763678208315 4.5345644280351758 2 8.6 22.291379529407173 2 1.4 11.539725595880709 2 1.4 3.7207799653863241 2 6.4070778283807224 17.631275239846957 2 1.4 18.761522585349013 2 4.7166100571289968 6.9340050269531535 2 8.6 16.843397223322977 2 1.2 9.0276926304598675 2 1.4 5.9130226397458214 2 3.1735797192025652 13.753084815261429 2 4.4095638680742493 15.850012549924795 2 7.3167710924663876 1.4 2 4.9657873481355388 21.164507100535268 2 1.4 15.560925822144911 2 3.3183669313274118 1.2 2 4.4115111091974324 23.072248225822491 2 8.6 14.739971746181441 2 3.1213889252252778 8.2836256895536859 2 5.881235096276126 11.194549165965636 2 4.6600906003889859 17.881428175476398 2 4.8094436777532916 4.9736396850650557 2 5.9479591282126023 22.97353929220532 2 1.4 14.341778625725441 2 2.8911303336239471 3.4247081485384241 2 5.1583648824569934 16.339776476724836 2 8.6 15.744626551537751 2 1.4 4.2415942946939529 2 5.5967464472621851 1.4 2 3.5255262666847149 17.984891319127733 2 4.5261978442368154 1.4 2 3.5744664250723961 7.4263255011533253 2 5.0582874714222479 14.583553814053149 2 1.4 20.277523842775395 2 3.9137092032348031 3.7989631317136991 2 8.6 20.568196454281797 2 2.8717267950340997 10.778376889907571 2 1.4 1.4 2 7.4292567604621302 17.584978146905943 2 5.5725679198979918 5.4155603521269455 2 7.3543598433894175 19.73353271265438 2 2.8948805343686264 4.1487351242322994 2 5.2440893072711106 12.115957368706482 2 7.8749665921326573 2.1795734278738292 2 2.483453704589158 17.14580070464001 2 1.4 8.3781842526762595 2 2.7197701475040978 6.0981892688248767 2 1.4 12.998347354970839 2 5.0956484755431619 2.9818050923546182 2 1.4 4.8041841765867108 2 6.7489191582866424 3.0965219534904032 2 3.5303103386751005 21.49538867675545 2 1.2 9.6659283258524802 2 3.6017406959992968 15.081109968956978 2 2.1275907767975477 1.2 2 1 1 2 5.5432881376587293 15.491114987602938 2 4.913988745857603 19.224895420293148 2 3.8908771339409896 1.4 2 1.4 7.7649620140247197 2 6.1657730038814895 12.407456239732756 2 1 22.545690321955995 2 5.9970697460977842 3.6589686255105267 2 7.7124917808972784 24.158374289813878 2 2.6400169414320329 11.926820691505222 2 1.4 2.1559599811822543 2 6.2485249219951893 19.149709513484684 2 1.4 17.586350099177704 2 4.5053403381645918 7.88645847955019 2 8.6 17.99663046580341 2 1.4 6.4858727737869666 2 4.0630034390417231 14.139833833397475 2 8.6 1.4 2 2.0177589057931375 14.964970737795728 2 6.601041698833729 15.940636155239085 2 2.4995008520344606 7.4380869555186022 2 5.9376729455159527 10.191711750076694 2 5.0638414208699762 3.9341778013586826 2 1.5478283245289393 13.641095367825287 2 3.9969959248807165 3.1036240824324119 2 1.4 3.1961805395051313 2 6.1308892308735992 1.4 2 2.3607501573592753 19.237689802990584 2 3.2991286311127439 2.2149273017374318 2 3.5431696412232565 6.54642532502944 2 5.007227284425154 13.356171453854831 2 1.6655064640991779 21.467660750245432 2 2.8727731823872658 5.1062920813682018 2 8.6 19.234025203854767 2 1.4 10.876923960284621 2 2.776500315520241 1.4 2 7.4681536802903397 15.71531211564154 2 6.0105765388293202 6.2735619759069481 2 7.1574981857306286 21.683039109700882 2 3.7676681096519515 4.6898578595058611 2 3.3785953388587586 12.808479889220113 2 8.6 3.1034017204509712 2 1.4 16.484113145369314 2 2.261191811712747 8.9292439507228085 2 3.7693352196315231 5.6773724082117942 2 1.4 12.262388915627863 2 5.9711430813853381 2.6993528249614993 2 1.4 5.3441344472329506 2 6.6862160172313798 1.8269469107304377 2 3.6119783113630648 19.898066705224466 2 6.9915979157628119 11.784246018411567 2 1.2 10.265269520864781 2 3.7187081263227193 16.678275299863575 2 6.0680035962758767 20.902965501330392 2 4.2679319050425679 2.233859351068896 2 2.6668492356104481 9.8926717897651031 2 3.0472374018886597 15.795692360255821 2 1.2 1.2 2 2.3827340201305529 2.9038861908572526 2 5.6902956366110944 16.988321530232451 2 2.3422770601142129 2.1117956438233123 2 6.2486806887032591 14.799474630465767 2 </DataArray>
<DataArray Name="forces" NumberOfComponents="3" format="ascii" type="Float32">-5.1236487728569688 -0.20546148819655718 0.0 -0.11837531913854971 -5.3260290999790811 0.0 -4.7292147908919242 0.51224398752761302 0.0 -0.105592279920594 0.71673944164858261 0.0 -0.14445520775513018 1.267552284954705 0.0 0.15479622490764511 0.39064213873337827 0.0 0.12441325355471389 0.41512054133576104 0.0 1.4551850119925285 0.89647497289008626 0.0 -3.6928762013441121 0.49520868858574918 0.0 -4.6442418519511506 0.22965261523490088 0.0 -0.040488727395034729 0.70997985315525591 0.0 -2.8263208935706845 0.76706100514834008 0.0 0.23681515565472178 0.47703159304990417 0.0 3.0415916566629613 0.52154260850477396 0.0 -4.2360957311239309 0.34372033119297568 0.0 -4.4884524721112413 0.43343612720861913 0.0 -0.26133351372210473 0.5859304950230666 0.0 -0.080057017070607278 0.10905662360268034 0.0 0.07585370499503874 -4.3816431455467031 0.0 -0.067476419707445334 0.80843740405155784 0.0 -3.4571745230672608 0.78290958457213755 0.0 0.012827633355430135 -6.0521379980418635 0.0 -0.029454768232766548 0.97359111977691448 0.0 3.3409486637068544 0.49148082905648954 0.0 0.14132406544090803 0.44216484939517975 0.0 0.2194777334004363 0.53621611272540504 0.0 0.14879262933551296 0.88568729566369986 0.0 0.17713591404631979 0.35392345027256322 0.0 0.039366237451605231 0.91639631441889213 0.0 -3.707602742819331 0.80472400444618342 0.0 0.24103724544743943 0.47468492436867982 0.0 -0.17579181112828982 0.30268208347283687 0.0 3.1138242065207056 0.50987396913084604 0.0 -4.414848987917086 0.22487613836129641 0.0 -0.099174468756418555 -5.0830860685266996 0.0 0.14453182111073215 0.64149021340403078 0.0 -0.077538751430066333 -5.6352489269871482 0.0 0.23778891173818364 0.4624364728104664 0.0 0.15625808724515267 0.51468227500454078 0.0 -2.1251365170988183 0.69464695265318832 0.0 -0.036127720477595923 0.53895635282018306 0.0 1.9498697057982963 0.76756657346365942 0.0 0.0017396301719306839 0.55904473313715108 0.0 -3.1284397961913228 -2.7226520564508667 0.0 0.010075680859373382 0.66922007782128023 0.0 0.10573498089377853 0.47228340800120011 0.0 -0.052758380916352543 0.86793761143888959 0.0 -0.23213637484833072 0.60882982173001787 0.0 0.18955866058037862 0.46007667017346765 0.0 0.50440604912343123 0.3401750828760074 0.0 0.1594944382247514 0.79149819446515757 0.0 -3.9739626012518565 0.45892158546396417 0.0 -0.099832170319437141 0.4811493704874551 0.0 -3.4885637653537223 0.29224554742767661 0.0 0.13744555893468824 0.42868753617202537 0.0 -4.4387952230783068 0.25519405943068874 0.0 -0.13101470062646209 0.19803115070927113 0.0 -0.19927882249687953 1.1202181514985337 0.0 -3.4531524838564955 0.34476075529112565 0.0 -0.14147533514580202 0.38685804443212146 0.0 0.14552312434110815 -5.4041734801348813 0.0 -4.8698684573940447 -4.6357845155955122 0.0 -0.012344189843145004 0.46738413037953064 0.0 -0.067939795775407388 0.87357819870166431 0.0 0.018665615280463954 -5.6058848555511522 0.0 -4.4508099352876416 0.46988231501212785 0.0 0.12407976072295493 0.71778789552617572 0.0 -1.0429806439223273 0.73649469245780153 0.0 0.081174921273827028 0.50126742022334092 0.0 0.13705688688945614 1.1920583379136311 0.0 0.22039504182719755 0.84971379826094018 0.0 -5.0287409354066703 -0.037756334650057788 0.0 0.012981626260976334 0.79129130692411032 0.0 -2.8325626913189037 0.73532596794413363 0.0 0.12610682361411613 0.52604315344651043 0.0 2.7059335314310053 0.62457122935033504 0.0 -4.5812535646384145 0.48636375847769853 0.0 -0.089181535008958271 0.50994728815181611 0.0 3.8269118491634591 -3.8864803033498947 0.0 0.12857602631439957 0.56342003102730398 0.0 0.078896615441912954 0.85009016869129095 0.0 0.26481236853406809 0.5168713371517808 0.0 -0.02767432868222397 0.4486392728753178 0.0 0.032829997552361434 0.33494071476568682 0.0 -1.701275516825747 0.78957891997556306 0.0 -0.094641682702500063 0.53977964740169471 0.0 -4.5186528039517864 0.066492569873109253 0.0 -0.23160163573438464 -4.7779041243985425 0.0 0.21388087741595507 0.87500165559955201 0.0 0.10911453362170964 0.26552206599504691 0.0 -0.0093132061817004508 0.50266979719945992 0.0 -0.023263526530059087 0.55070258558706953 0.0 -0.50664208971520408 0.87067604091576256 0.0 -0.10836480233018457 0.55498558126205799 0.0 2.3209942339069061 0.66759700589027238 0.0 -3.3438905587929764 0.51431192627276179 0.0 0.026900059401176346 -5.3581275340421772 0.0 -0.014459848328977731 0.51188327204117023 0.0 -0.016870109702287528 0.48863396567114498 0.0 -0.084429710402774694 1.0078902379688408 0.0 0.035554960792930662 0.59494322442302638 0.0 -0.0059695894109538239 0.71301894987550862 0.0 3.8507297181130307 0.5415458200987191 0.0 -2.9353332304257513 0.76804657114820551 0.0 0.01749176246459716 0.47317571815633608 0.0 0.032992859889284132 0.49084657755298455 0.0 -3.6469593424422873 0.419103385609918 0.0 0.26567890052501864 0.42257010179222787 0.0 -4.5526560621287517 0.36926814736343816 0.0 0.11509207539507349 -0.38369154555906715 0.0 0.087434849047738517 1.0465133420199684 0.0 -0.022377246413638932 0.37455439216649183 0.0 -3.5429481422543714 0.38885326573883949 0.0 0.13637720854654156 0.52928892468178923 0.0 -0.1108110316043367 0.69815170092701873 0.0 0.1909794919920362 0.68752135469698195 0.0 0.0448154344712417 0.37299971631329953 0.0 -0.00060864860866838288 0.57565166429998516 0.0 -4.2542965325156281 -3.9533852332045445 0.0 0.088525435707648342 0.34088249626111766 0.0 -0.11087192765799159 0.29114935348973692 0.0 0.013160145990256139 0.4211074910253052 0.0 0.078987906965132249 0.55960537009211531 0.0 </DataArray>
<DataArray Name="radii" format="ascii" type="Float32">1 1.4 1.4 1.4 1.4 1.2 1.4 1.4 1.4 1.4 1.4 1.4 1.4 1.4 1.2 1.4 1.4 1.2 1.4 1.2 1.4 1.2 1.2 1.4 1.4 1.4 1.5999999999999999 1.4 1.2 1.4 1.4 1 1.4 1.4 1.4 1.4 1.4 1.4 1.4 1.4 1.4 1.4 1.4 1.4 1.4 1.4 1.4 1.4 1.4 1.4 1.4 1.4 1.4 1.4 1.4 1.4 1.4 1.4 1.2 1.2 1.2 1 1 1.5999999999999999 1.4 1.4 1.4 1 1.4 1.4 1.4 1.4 1.4 1.4 1.4 1.4 1.4 1.4 1.4 1.4 1.4 1.4 1.4 1.4 1.4 1.4 1.4 1.4 1.4 1.4 1.4 1.4 1.4 1.4 1.4 1.4 1.4 1.4 1.4 1.4 1.4 1.4 1.4 1.4 1.4 1.4 1.4 1.4 1.4 1.4 1.4 1.2 1.2 1.2 1.2 1.2 1.2 1.2 1.2 1 1 1 1 </DataArray>
</PointData>
<CellData/>
</Piece>
</UnstructuredGrid>
</VTKFile>
