<?xml version="1.0" ?>
<VTKFile byte_order="LittleEndian" type="UnstructuredGrid" version="0.1">
<UnstructuredGrid>
<Piece NumberOfCells="0" NumberOfPoints="39">
<Points>
<DataArray NumberOfComponents="3" format="ascii" type="Float32">6.5576534077100694 1 2 4.8684603025637436 9.8376175159563868 2 7.40143756060864 1 2 9.0 1 2 9.0 8.1586611037082069 2 3.2359845533562228 8.8958343388726338 2 9.0 2.1771380511408611 2 8.2192285865280681 1 2 9.0 11.100138933527532 2 3.7862705998093169 7.4621276308400217 2 9.0 5.546276312408863 2 8.2496247740270281 6.3004102303539105 2 6.4117118878566535 13.199244074454906 2 6.4919626381146953 9.5900544342256371 2 9.0 9.7142256643700122 2 4.9140758040369388 6.2382124640323138 2 7.3660741761074693 10.392322273178387 2 6.2947583326921484 3.958130885022983 2 5.5397480408785063 7.3867764575099644 2 3.0513427667445594 10.829391231271668 2 8.0189825494032636 9.3758757752382138 2 9.0 3.5939312768698368 2 9.0 13.006253812749831 2 7.6251681274292356 4.0854223748562255 2 6.7057684018769015 7.8373049861192881 2 5.5658594718042442 4.5716211018427719 2 6.5828137773716238 5.5420582580431983 2 4.577998685234113 8.1394197324633168 2 7.6529791504909275 8.3078342650691948 2 8.316486980412531 2.6606892884409867 2 8.1255515007628496 11.697798823638832 2 9.0 4.5352428731580874 2 9.0 7.1122125389483708 2 6.0539834467577478 6.2867493040092235 2 5.7363533975147849 8.8361048314766588 2 3.8882941056129963 9.72204644680059 2 7.6284362826404655 12.986042047074053 2 7.48902614595473 5.0436658482808872 2 7.390373501173042 6.8458547146207378 2 </DataArray>
</Points>
<Cells>
<DataArray Name="connectivity" format="ascii" type="Int32">0</DataArray>
<DataArray Name="offsets" format="ascii" type="Int32">0</DataArray>
<DataArray Name="types" format="ascii" type="UInt8">1</DataArray>
</Cells>
<PointData>
<DataArray Name="Points" NumberOfComponents="3" format="ascii" type="Float32">6.5576534077100694 1 2 4.8684603025637436 9.8376175159563868 2 7.40143756060864 1 2 9.0 1 2 9.0 8.1586611037082069 2 3.2359845533562228 8.8958343388726338 2 9.0 2.1771380511408611 2 8.2192285865280681 1 2 9.0 11.100138933527532 2 3.7862705998093169 7.4621276308400217 2 9.0 5.546276312408863 2 8.2496247740270281 6.3004102303539105 2 6.4117118878566535 13.199244074454906 2 6.4919626381146953 9.5900544342256371 2 9.0 9.7142256643700122 2 4.9140758040369388 6.2382124640323138 2 7.3660741761074693 10.392322273178387 2 6.2947583326921484 3.958130885022983 2 5.5397480408785063 7.3867764575099644 2 3.0513427667445594 10.829391231271668 2 8.0189825494032636 9.3758757752382138 2 9.0 3.5939312768698368 2 9.0 13.006253812749831 2 7.6251681274292356 4.0854223748562255 2 6.7057684018769015 7.8373049861192881 2 5.5658594718042442 4.5716211018427719 2 6.5828137773716238 5.5420582580431983 2 4.577998685234113 8.1394197324633168 2 7.6529791504909275 8.3078342650691948 2 8.316486980412531 2.6606892884409867 2 8.1255515007628496 11.697798823638832 2 9.0 4.5352428731580874 2 9.0 7.1122125389483708 2 6.0539834467577478 6.2867493040092235 2 5.7363533975147849 8.8361048314766588 2 3.8882941056129963 9.72204644680059 2 7.6284362826404655 12.986042047074053 2 7.48902614595473 5.0436658482808872 2 7.390373501173042 6.8458547146207378 2 </DataArray>
<DataArray Name="forces" NumberOfComponents="3" format="ascii" type="Float32">0.022850539685674021 -0.96013607937763568 0.0 -0.021673326459897835 0.088150624593230933 0.0 0.014049101158462717 -0.6165736816223707 0.0 1.6972338487553851 -1.0116869877274535 0.0 0.91405456122658912 0.098152018783143058 0.0 -0.053527634717333905 0.10545427804753993 0.0 1.3633348847265963 0.02756476296721104 0.0 0.010491815504477284 -0.87282541543168046 0.0 0.98561311253404071 0.091360746665371972 0.0 -0.028048658967152251 0.14918183741885471 0.0 1.0444568000770045 0.068654678002805863 0.0 -0.042765540798708646 0.080593211170138401 0.0 -0.066565455826831821 0.10586769052041345 0.0 0.024182271634366259 0.095286385459798506 0.0 1.1618861070158477 0.095247767339799339 0.0 -0.063588463188874789 0.094812296307610316 0.0 -0.0037523848119502823 0.13885658822673291 0.0 0.029660961693078997 -0.05102971373109022 0.0 0.019725421997298168 0.046128462213214191 0.0 -0.021749736468490377 0.13484008507276818 0.0 -0.027753646460267956 0.10698149703801962 0.0 1.1654261766410003 0.027071784515772308 0.0 0.86288266228965083 0.096688717012571243 0.0 -0.019995805483575935 0.072464656800139693 0.0 -0.020161948635574356 0.12748413859200269 0.0 0.073724138600387096 0.11324279939290063 0.0 -0.035521475546716363 0.007714025177843975 0.0 0.00936010105727407 0.084916656966917192 0.0 0.019883421561971315 0.063692207756574637 0.0 -0.015172606981516346 0.054376865174855571 0.0 0.019674399577832569 0.11131855311351613 0.0 0.94448552511345074 0.039565552617934874 0.0 1.1188874461636364 0.066904667689400343 0.0 0.026910538827471298 0.078634968197035388 0.0 -0.023630439400224794 0.10934982240366423 0.0 -0.034563917553908606 0.13358944327562583 0.0 0.024787101474869649 0.14660677022644564 0.0 0.049754642984134706 0.10758124881146916 0.0 -0.018466639385543354 0.089329546844064134 0.0 </DataArray>
<DataArray Name="radii" format="ascii" type="Float32">1 1 1 1 1 1 1 1 1 1 1 1 1 1 1 1 1 1 1 1 1 1 1 1 1 1 1 1 1 1 1 1 1 1 1 1 1 1 1 </DataArray>
</PointData>
<CellData/>
</Piece>
</UnstructuredGrid>
</VTKFile>
