<?xml version="1.0" ?>
<VTKFile byte_order="LittleEndian" type="UnstructuredGrid" version="0.1">
<UnstructuredGrid>
<Piece NumberOfCells="0" NumberOfPoints="39">
<Points>
<DataArray NumberOfComponents="3" format="ascii" type="Float32">6.6691409517671261 1 2 4.9060218276718004 10.002960089339409 2 7.5569093755627161 1 2 9.0 1 2 8.8 8.6382698411478387 2 2.6297178595438035 9.0254298015347487 2 9.0 2.1159767702890755 2 8.5047476263739838 1.2 2 8.8 11.077790572998964 2 3.6686615022279572 7.7810364554471283 2 8.8 5.6297358099327441 2 8.8 6.6123451981513268 2 6.4603503607364798 13.375630532230923 2 6.5200478656161494 9.7364514015618031 2 9.0 9.8462280388971912 2 5.0194344962284889 6.479932193646543 2 7.1984321265548505 10.437390829479504 2 6.21009097126184 4.0506011183004125 2 5.5829176114441541 7.7573564965368806 2 3.145000714602785 11.160473660892404 2 7.8977633485409262 9.6213164208522777 2 9.0 3.7559422035790608 2 8.8 13.221878053850769 2 7.3365354854817308 4.0790264941881595 2 6.7950464016005627 7.7885185406530031 2 5.6797852119518293 4.8045558305410605 2 6.7551946702078016 5.7833184761857384 2 4.5729594933366773 8.3815244035293759 2 7.4668785499229262 8.5603099369529136 2 8.8 2.9035926902635887 2 8.2098881599364759 11.86288401032343 2 8.8 4.6532194896886478 2 8.8 7.6318440825145588 2 6.0659682239025265 6.3779570642012962 2 5.9189892684962402 9.0616755614559406 2 3.859875637605477 9.5457111158609482 2 7.5597746698387027 13.195174075643948 2 7.4372116418572487 5.1865745835391177 2 7.4090061064209962 6.8812065757851553 2 </DataArray>
</Points>
<Cells>
<DataArray Name="connectivity" format="ascii" type="Int32">0</DataArray>
<DataArray Name="offsets" format="ascii" type="Int32">0</DataArray>
<DataArray Name="types" format="ascii" type="UInt8">1</DataArray>
</Cells>
<PointData>
<DataArray Name="Points" NumberOfComponents="3" format="ascii" type="Float32">6.6691409517671261 1 2 4.9060218276718004 10.002960089339409 2 7.5569093755627161 1 2 9.0 1 2 8.8 8.6382698411478387 2 2.6297178595438035 9.0254298015347487 2 9.0 2.1159767702890755 2 8.5047476263739838 1.2 2 8.8 11.077790572998964 2 3.6686615022279572 7.7810364554471283 2 8.8 5.6297358099327441 2 8.8 6.6123451981513268 2 6.4603503607364798 13.375630532230923 2 6.5200478656161494 9.7364514015618031 2 9.0 9.8462280388971912 2 5.0194344962284889 6.479932193646543 2 7.1984321265548505 10.437390829479504 2 6.21009097126184 4.0506011183004125 2 5.5829176114441541 7.7573564965368806 2 3.145000714602785 11.160473660892404 2 7.8977633485409262 9.6213164208522777 2 9.0 3.7559422035790608 2 8.8 13.221878053850769 2 7.3365354854817308 4.0790264941881595 2 6.7950464016005627 7.7885185406530031 2 5.6797852119518293 4.8045558305410605 2 6.7551946702078016 5.7833184761857384 2 4.5729594933366773 8.3815244035293759 2 7.4668785499229262 8.5603099369529136 2 8.8 2.9035926902635887 2 8.2098881599364759 11.86288401032343 2 8.8 4.6532194896886478 2 8.8 7.6318440825145588 2 6.0659682239025265 6.3779570642012962 2 5.9189892684962402 9.0616755614559406 2 3.859875637605477 9.5457111158609482 2 7.5597746698387027 13.195174075643948 2 7.4372116418572487 5.1865745835391177 2 7.4090061064209962 6.8812065757851553 2 </DataArray>
<DataArray Name="forces" NumberOfComponents="3" format="ascii" type="Float32">0.014103889388315582 -1.8067446386758821 0.0 -0.020190713061453591 0.26240119732951123 0.0 0.024295573485275449 -1.4975656585804971 0.0 2.1292257166360091 -1.7930829274171129 0.0 1.4980724574356112 0.30722219607172629 0.0 -0.078280405255453711 0.16341986295681013 0.0 1.6297529653495109 0.10960192579124226 0.0 0.074759623308359335 -1.4028970421224218 0.0 1.6262243816595872 0.087372106919266113 0.0 -0.048909525694693069 0.15181747869433387 0.0 1.4588052935644176 0.18233693167270082 0.0 1.121020162479839 0.22694188689357056 0.0 -0.034770721115628955 0.14950142156038695 0.0 -0.067628512846533373 0.11448806382767118 0.0 1.2867941413921071 0.13376914747131852 0.0 0.010830333296788286 0.21264580536948569 0.0 -0.060834896433238875 0.19771781597656021 0.0 -0.044559282987744558 0.093162148135753298 0.0 0.036747435584540161 0.27268744194227962 0.0 -0.0050282098820197962 0.19299519245181329 0.0 -0.1312394981073273 0.15304891005186902 0.0 1.5680163644036098 0.13147141626265318 0.0 1.483869549142379 0.21285362352727386 0.0 -0.078700458254422845 0.12932219165888076 0.0 0.052185242726482617 0.037912386666969833 0.0 0.0477737666616877 0.17817475813069297 0.0 0.096700495222145411 0.17480820132486008 0.0 -0.012727031849713133 0.15982252175927392 0.0 -0.058987408440203268 0.15577763987827511 0.0 1.3086000490731138 0.16268498877722237 0.0 0.17590688730154957 0.22894054944033293 0.0 1.5122309859479208 0.17423111914655981 0.0 1.4063502609193914 0.31118889389819676 0.0 -0.033903498581326796 0.083467055910851462 0.0 0.018094707035773941 0.12719199536234677 0.0 0.054601124355194861 0.12509386672417705 0.0 -0.0036653968146491689 0.17452753099715806 0.0 0.024590101760550931 0.097562771482755939 0.0 0.1067213413976591 0.085205828469459122 0.0 </DataArray>
<DataArray Name="radii" format="ascii" type="Float32">1 1.2 1 1 1.2 1 1 1.2 1.2 1 1.2 1.2 1 1 1 1.2 1 1 1.2 1.2 1 1 1.2 1.2 1.2 1 1 1.2 1 1.2 1.2 1.2 1.2 1 1 1.2 1 1.2 1 </DataArray>
</PointData>
<CellData/>
</Piece>
</UnstructuredGrid>
</VTKFile>
