<?xml version="1.0" ?>
<VTKFile byte_order="LittleEndian" type="UnstructuredGrid" version="0.1">
<UnstructuredGrid>
<Piece NumberOfCells="0" NumberOfPoints="27">
<Points>
<DataArray NumberOfComponents="3" format="ascii" type="Float32">6.5661061326370325 1 2 4.434513197865507 8.6739683035244415 2 7.7810530833667473 1 2 9.0 1 2 8.8 7.3612737775804016 2 2.615983355061307 8.8175404963805821 2 9.0 2.3923386628407837 2 7.525816848898514 2.5348777757962484 2 8.2693132308165183 11.102687406004989 2 3.7815744653610004 7.2490741838746837 2 8.8 5.4460956400906655 2 7.3804789371235193 6.2054792297997556 2 6.4524478065639075 12.515781864754935 2 6.0597126802189143 9.0302188532238699 2 9.0 9.4559038319024271 2 4.6572813609083505 5.4514097082206909 2 7.3328015373282849 9.637348846382789 2 6.0139922796671783 4.0247500956045945 2 5.2281092941619116 6.9571569963659163 2 3.2545706663282781 10.25041901319449 2 7.9014165660151638 8.3550570792405683 2 9.0 3.7914015686001843 2 8.8 12.623835463368389 2 7.5295982742202838 4.1805139286904236 2 6.5454871728984978 7.5943489957283381 2 4.571352790943374 4.1034324651652385 2 6.193909030203919 5.4323894716122885 2 </DataArray>
</Points>
<Cells>
<DataArray Name="connectivity" format="ascii" type="Int32">0</DataArray>
<DataArray Name="offsets" format="ascii" type="Int32">0</DataArray>
<DataArray Name="types" format="ascii" type="UInt8">1</DataArray>
</Cells>
<PointData>
<DataArray Name="Points" NumberOfComponents="3" format="ascii" type="Float32">6.5661061326370325 1 2 4.434513197865507 8.6739683035244415 2 7.7810530833667473 1 2 9.0 1 2 8.8 7.3612737775804016 2 2.615983355061307 8.8175404963805821 2 9.0 2.3923386628407837 2 7.525816848898514 2.5348777757962484 2 8.2693132308165183 11.102687406004989 2 3.7815744653610004 7.2490741838746837 2 8.8 5.4460956400906655 2 7.3804789371235193 6.2054792297997556 2 6.4524478065639075 12.515781864754935 2 6.0597126802189143 9.0302188532238699 2 9.0 9.4559038319024271 2 4.6572813609083505 5.4514097082206909 2 7.3328015373282849 9.637348846382789 2 6.0139922796671783 4.0247500956045945 2 5.2281092941619116 6.9571569963659163 2 3.2545706663282781 10.25041901319449 2 7.9014165660151638 8.3550570792405683 2 9.0 3.7914015686001843 2 8.8 12.623835463368389 2 7.5295982742202838 4.1805139286904236 2 6.5454871728984978 7.5943489957283381 2 4.571352790943374 4.1034324651652385 2 6.193909030203919 5.4323894716122885 2 </DataArray>
<DataArray Name="forces" NumberOfComponents="3" format="ascii" type="Float32">0.014596523440735254 -0.89503820336485274 0.0 -0.017928579970255452 0.10359271674138851 0.0 0.011694892144937893 -0.74920431403160659 0.0 0.82972958391308782 -0.66122631729442805 0.0 1.1439471871770417 0.098410705209223598 0.0 -0.0058268179122925035 0.077048968823522634 0.0 0.81325502624778501 0.050515384021688869 0.0 0.015231111969741957 0.061890831207582875 0.0 0.13938039791105356 0.04245598256247729 0.0 0.025962983360648839 0.045915238752498297 0.0 1.0630325063617299 0.10144520018484465 0.0 0.0064500300939602795 0.10234727533014781 0.0 0.072700626568300827 0.11749538577528773 0.0 -0.024424696665695439 0.11715878499986287 0.0 0.80660653145478289 0.012414944004593031 0.0 -0.0033109740751422478 0.11430324588895632 0.0 -0.021600350489133353 0.11152603569713529 0.0 0.014664218356366943 0.052492157794278738 0.0 0.036954671890734481 0.098720794291931202 0.0 -0.0039456524967432793 0.14253102702714732 0.0 -0.050358394175682775 0.080349821223544782 0.0 0.91965905829426353 0.069316583375559016 0.0 0.51734707890568732 0.1228374259185831 0.0 0.016450023405433167 0.077345561915272421 0.0 -0.011086093802620807 0.11227095368584279 0.0 0.0098358354624802913 0.11692137096907765 0.0 0.022604932906944417 0.047136337969253192 0.0 </DataArray>
<DataArray Name="radii" format="ascii" type="Float32">1 1.2 1 1 1.2 1 1 1.2 1.2 1 1.2 1.2 1 1 1 1.2 1 1 1.2 1.2 1 1 1.2 1.2 1.2 1 1 </DataArray>
</PointData>
<CellData/>
</Piece>
</UnstructuredGrid>
</VTKFile>
