<?xml version="1.0" ?>
<VTKFile byte_order="LittleEndian" type="UnstructuredGrid" version="0.1">
<UnstructuredGrid>
<Piece NumberOfCells="0" NumberOfPoints="13">
<Points>
<DataArray NumberOfComponents="3" format="ascii" type="Float32">5.0937876208729618 1 2 5.0904196012228153 7.3804562830566507 2 7.3157520011773363 1 2 9.0 1 2 8.3595730228450833 7.2143837500850019 2 2.926017138734728 8.2741434751777589 2 9.0 2.5435707415234154 2 6.6724295518931411 2.5602647598842956 2 8.4 9.9631383670390683 2 2.7843989236045292 6.7707055194266426 2 8.4 4.6022594997584534 2 6.0014368913692691 5.1429175346270375 2 6.5663787673840996 11.087761841034029 2 </DataArray>
</Points>
<Cells>
<DataArray Name="connectivity" format="ascii" type="Int32">0</DataArray>
<DataArray Name="offsets" format="ascii" type="Int32">0</DataArray>
<DataArray Name="types" format="ascii" type="UInt8">1</DataArray>
</Cells>
<PointData>
<DataArray Name="Points" NumberOfComponents="3" format="ascii" type="Float32">5.0937876208729618 1 2 5.0904196012228153 7.3804562830566507 2 7.3157520011773363 1 2 9.0 1 2 8.3595730228450833 7.2143837500850019 2 2.926017138734728 8.2741434751777589 2 9.0 2.5435707415234154 2 6.6724295518931411 2.5602647598842956 2 8.4 9.9631383670390683 2 2.7843989236045292 6.7707055194266426 2 8.4 4.6022594997584534 2 6.0014368913692691 5.1429175346270375 2 6.5663787673840996 11.087761841034029 2 </DataArray>
<DataArray Name="forces" NumberOfComponents="3" format="ascii" type="Float32">-0.048503175496025563 -0.50532224867680453 0.0 0.0057881606942670749 0.16113134286304032 0.0 0.032747277169203504 -0.84695615399176771 0.0 0.31228886207153739 -0.45566019434115557 0.0 0.073597489555091489 0.13641356495416135 0.0 0.020975983377218066 0.091401417767548565 0.0 0.40373820184660847 0.01649316592695993 0.0 -0.03756360264787742 0.091299215184282301 0.0 0.81421222882790922 0.17802723839613027 0.0 0.0038552199356028938 0.077798612513646337 0.0 0.9455952004459286 0.087343860155245173 0.0 0.031625099114759414 0.15059649907320816 0.0 -0.0017386561921518134 0.13988829663271704 0.0 </DataArray>
<DataArray Name="radii" format="ascii" type="Float32">1 1.5999999999999999 1 1 1.5999999999999999 1 1 1.5999999999999999 1.5999999999999999 1 1.5999999999999999 1.5999999999999999 1 </DataArray>
</PointData>
<CellData/>
</Piece>
</UnstructuredGrid>
</VTKFile>
