<?xml version="1.0" ?>
<VTKFile byte_order="LittleEndian" type="UnstructuredGrid" version="0.1">
<UnstructuredGrid>
<Piece NumberOfCells="0" NumberOfPoints="36">
<Points>
<DataArray NumberOfComponents="3" format="ascii" type="Float32">1 1 2 3.7864307909289066 1.2 2 1.2 6.7454559473325713 2 4.6807144429080054 11.941679557553565 2 2.6050071798346117 17.434438892295134 2 6.3981794808310051 10.900573717365594 2 4.2723976028055723 2.8252619474395599 2 8.8 17.783998891216935 2 1.2 10.020913763357296 2 1.2 2.4122222873324195 2 6.0501540849268505 15.037533877033129 2 1 16.111665313420893 2 3.0875976001408327 5.6341894149520675 2 7.9813103658964195 15.802842156733297 2 1 8.4060471378164738 2 1.2 5.3371326709769855 2 2.7503397042026512 11.870687402044171 2 3.2230498606185494 13.461729443088426 2 5.9553298778184338 2.6216175741205014 2 6.4453041747201283 17.091480793664697 2 1.2 13.760304057166014 2 2.3656548380983486 1 2 4.6635036308930831 17.498350377599948 2 7.3672945995381225 13.762779697163831 2 2.4726704652380445 7.3539936229788321 2 5.0330767897372564 10.255916647612956 2 4.316837371267364 15.635682260277001 2 2.8600494762783852 4.1388674898566435 2 7.02334863094572 19.022618172720883 2 1.2 11.798617146439693 2 2.6658934627330311 2.5374272018360693 2 4.8680891743411934 13.722488146983371 2 9.0 14.419168170164369 2 1.2 3.9213699646803448 2 5.2313250424924576 1.2 2 2.6044109897725507 15.183382692049578 2 </DataArray>
</Points>
<Cells>
<DataArray Name="connectivity" format="ascii" type="Int32">0</DataArray>
<DataArray Name="offsets" format="ascii" type="Int32">0</DataArray>
<DataArray Name="types" format="ascii" type="UInt8">1</DataArray>
</Cells>
<PointData>
<DataArray Name="Points" NumberOfComponents="3" format="ascii" type="Float32">1 1 2 3.7864307909289066 1.2 2 1.2 6.7454559473325713 2 4.6807144429080054 11.941679557553565 2 2.6050071798346117 17.434438892295134 2 6.3981794808310051 10.900573717365594 2 4.2723976028055723 2.8252619474395599 2 8.8 17.783998891216935 2 1.2 10.020913763357296 2 1.2 2.4122222873324195 2 6.0501540849268505 15.037533877033129 2 1 16.111665313420893 2 3.0875976001408327 5.6341894149520675 2 7.9813103658964195 15.802842156733297 2 1 8.4060471378164738 2 1.2 5.3371326709769855 2 2.7503397042026512 11.870687402044171 2 3.2230498606185494 13.461729443088426 2 5.9553298778184338 2.6216175741205014 2 6.4453041747201283 17.091480793664697 2 1.2 13.760304057166014 2 2.3656548380983486 1 2 4.6635036308930831 17.498350377599948 2 7.3672945995381225 13.762779697163831 2 2.4726704652380445 7.3539936229788321 2 5.0330767897372564 10.255916647612956 2 4.316837371267364 15.635682260277001 2 2.8600494762783852 4.1388674898566435 2 7.02334863094572 19.022618172720883 2 1.2 11.798617146439693 2 2.6658934627330311 2.5374272018360693 2 4.8680891743411934 13.722488146983371 2 9.0 14.419168170164369 2 1.2 3.9213699646803448 2 5.2313250424924576 1.2 2 2.6044109897725507 15.183382692049578 2 </DataArray>
<DataArray Name="forces" NumberOfComponents="3" format="ascii" type="Float32">-0.74256945180309364 -0.76863789190220488 0.0 0.022971416975211878 -1.0719735072112302 0.0 -1.010356955863716 0.14824053035247831 0.0 0.028324633465771076 0.14892096429016843 0.0 -0.048156434752643057 0.22355143393310803 0.0 0.038579707191657708 0.13493906347083109 0.0 0.07310457158999778 0.10479425448728175 0.0 0.12336950876492347 0.21822075845894323 0.0 -0.52166542874469213 0.13110384582248724 0.0 -1.0570626900724596 0.080307493079594505 0.0 0.050610031727816418 0.23082780183065083 0.0 -0.39369241280363704 0.096926275516199464 0.0 -0.045727197566362045 0.044846508910371036 0.0 0.08669720500244027 0.21390428965556496 0.0 -0.77608267988498147 0.09930386952800796 0.0 -0.77597235987567492 0.11122149884137456 0.0 0.015324790923454401 0.17417987433330445 0.0 0.03639751221287163 0.16136491173434181 0.0 0.02870714180909345 0.063843287685835415 0.0 0.039502256618756809 0.19288734416339887 0.0 -0.44066727722801025 0.17589943985706402 0.0 -0.0095811751315277721 -1.013645573209262 0.0 -0.0075706076708488522 0.1479607910964274 0.0 -7.857930379659428e-05 0.18453354334927022 0.0 0.041920409062946418 0.078771565868293481 0.0 -0.0027794312679614297 0.10557335965528183 0.0 0.047320983608292233 0.13615232484913786 0.0 -0.0086193136793707992 0.020275047300940797 0.0 -0.025427191704397931 0.018025337518452741 0.0 -0.8485905808592823 0.14432677145999717 0.0 0.057666395444352425 0.022142469013773425 0.0 0.079154225770280237 0.13527101364216729 0.0 0.55295671911228361 0.091518654050966208 0.0 -1.0021966062645093 0.075276655919046476 0.0 0.010092857248335085 -1.0346789229444469 0.0 0.042474347670330426 0.20285101691357021 0.0 </DataArray>
<DataArray Name="radii" format="ascii" type="Float32">1 1.2 1.2 1.2 1.2 1 1.2 1.2 1.2 1.2 1.2 1 1.2 1.2 1 1.2 1.2 1 1.2 1 1.2 1 1 1 1.2 1 1 1.2 1 1.2 1.2 1 1 1.2 1.2 1.2 </DataArray>
</PointData>
<CellData/>
</Piece>
</UnstructuredGrid>
</VTKFile>
