<?xml version="1.0" ?>
<VTKFile byte_order="LittleEndian" type="UnstructuredGrid" version="0.1">
<UnstructuredGrid>
<Piece NumberOfCells="0" NumberOfPoints="9">
<Points>
<DataArray NumberOfComponents="3" format="ascii" type="Float32">5.3772625256373523 1 2 4.6767801839647181 5.8655656499081026 2 7.1955845043731097 1 2 9.0 1 2 8.4 6.0341129640534552 2 3.5835801301191785 8.1434590918705982 2 9.0 2.9023060965688079 2 6.8337591838562357 3.513915893701169 2 8.4 9.1432914997557688 2 </DataArray>
</Points>
<Cells>
<DataArray Name="connectivity" format="ascii" type="Int32">0</DataArray>
<DataArray Name="offsets" format="ascii" type="Int32">0</DataArray>
<DataArray Name="types" format="ascii" type="UInt8">1</DataArray>
</Cells>
<PointData>
<DataArray Name="Points" NumberOfComponents="3" format="ascii" type="Float32">5.3772625256373523 1 2 4.6767801839647181 5.8655656499081026 2 7.1955845043731097 1 2 9.0 1 2 8.4 6.0341129640534552 2 3.5835801301191785 8.1434590918705982 2 9.0 2.9023060965688079 2 6.8337591838562357 3.513915893701169 2 8.4 9.1432914997557688 2 </DataArray>
<DataArray Name="forces" NumberOfComponents="3" format="ascii" type="Float32">-0.0078463655831773893 -0.28019050282261143 0.0 0.0061966227148571307 0.053687271129681788 0.0 -0.0052114101902973227 -0.064709060610821004 0.0 0.19713954835942271 -0.095988320463982202 0.0 0.16783515815194572 0.074703561389487222 0.0 0.0064543876636189643 0.031095330500463612 0.0 0.33512943917761268 0.0027068108402567848 0.0 0.01142710074048725 0.054585231075190532 0.0 0.12011595712700472 0.0768448099020477 0.0 </DataArray>
<DataArray Name="radii" format="ascii" type="Float32">1 1.5999999999999999 1 1 1.5999999999999999 1 1 1.5999999999999999 1.5999999999999999 </DataArray>
</PointData>
<CellData/>
</Piece>
</UnstructuredGrid>
</VTKFile>
