<?xml version="1.0" ?>
<VTKFile byte_order="LittleEndian" type="UnstructuredGrid" version="0.1">
<UnstructuredGrid>
<Piece NumberOfCells="0" NumberOfPoints="6">
<Points>
<DataArray NumberOfComponents="3" format="ascii" type="Float32">1 1 2 2.9761500924308462 1 2 1 2.983398619902351 2 6.4299831809861248 7.0955925247833385 2 2.4680651689502149 4.3358028572197247 2 6.4248628058393296 5.0937765135118269 2 </DataArray>
</Points>
<Cells>
<DataArray Name="connectivity" format="ascii" type="Int32">0</DataArray>
<DataArray Name="offsets" format="ascii" type="Int32">0</DataArray>
<DataArray Name="types" format="ascii" type="UInt8">1</DataArray>
</Cells>
<PointData>
<DataArray Name="Points" NumberOfComponents="3" format="ascii" type="Float32">1 1 2 2.9761500924308462 1 2 1 2.983398619902351 2 6.4299831809861248 7.0955925247833385 2 2.4680651689502149 4.3358028572197247 2 6.4248628058393296 5.0937765135118269 2 </DataArray>
<DataArray Name="forces" NumberOfComponents="3" format="ascii" type="Float32">-0.012883544927452473 -0.017432787528752769 0.0 -0.0072099879648543919 0.0 0.0 -0.01665977684998728 0.0021990075048891073 0.0 0.0 0.0 0.0 0.0057560056059054523 0.014035908106575666 0.0 0.0 0.0 0.0 </DataArray>
<DataArray Name="radii" format="ascii" type="Float32">1 1 1 1 1 1 </DataArray>
</PointData>
<CellData/>
</Piece>
</UnstructuredGrid>
</VTKFile>
