<?xml version="1.0" ?>
<VTKFile byte_order="LittleEndian" type="UnstructuredGrid" version="0.1">
<UnstructuredGrid>
<Piece NumberOfCells="0" NumberOfPoints="9">
<Points>
<DataArray NumberOfComponents="3" format="ascii" type="Float32">1 1 2 2.9999677055664877 1 2 1.0973316896016876 3.0407892929947278 2 6.1623152142775171 8.0560405437561826 2 1.7489769958024701 7.3230389878460347 2 5.9911042458754498 6.0137115439808602 2 2.9790827945209082 3.8413202542217393 2 7.6605506166720527 9.3860167947165731 2 1.6062715450564546 5.3138841215458994 2 </DataArray>
</Points>
<Cells>
<DataArray Name="connectivity" format="ascii" type="Int32">0</DataArray>
<DataArray Name="offsets" format="ascii" type="Int32">0</DataArray>
<DataArray Name="types" format="ascii" type="UInt8">1</DataArray>
</Cells>
<PointData>
<DataArray Name="Points" NumberOfComponents="3" format="ascii" type="Float32">1 1 2 2.9999677055664877 1 2 1.0973316896016876 3.0407892929947278 2 6.1623152142775171 8.0560405437561826 2 1.7489769958024701 7.3230389878460347 2 5.9911042458754498 6.0137115439808602 2 2.9790827945209082 3.8413202542217393 2 7.6605506166720527 9.3860167947165731 2 1.6062715450564546 5.3138841215458994 2 </DataArray>
<DataArray Name="forces" NumberOfComponents="3" format="ascii" type="Float32">-0.00043726489862372375 0.0 0.0 0.00021117331980757825 0.0 0.0 -0.014589087804586964 -0.0062064618711264816 0.0 0.0 0.0 0.0 0.0 0.0 0.0 0.0 0.0 0.0 0.014589087804586964 0.0062064618711264816 0.0 0.0 0.0 0.0 0.0 0.0 0.0 </DataArray>
<DataArray Name="radii" format="ascii" type="Float32">1 1 1 1 1 1 1 1 1 </DataArray>
</PointData>
<CellData/>
</Piece>
</UnstructuredGrid>
</VTKFile>
