<?xml version="1.0" ?>
<VTKFile byte_order="LittleEndian" type="UnstructuredGrid" version="0.1">
<UnstructuredGrid>
<Piece NumberOfCells="0" NumberOfPoints="27">
<Points>
<DataArray NumberOfComponents="3" format="ascii" type="Float32">6.5449097062879646 1 2 4.7774309105353217 9.4127302125861032 2 7.6785962830582308 1 2 9.0 1 2 8.4 7.7814065440302578 2 3.0177299176598034 8.7857039603468365 2 9.0 2.4628016723976383 2 8.4 1.7001940028135314 2 8.4 11.0824172576466 2 3.8276350795909133 7.7911981810792925 2 8.4 5.1776582734221224 2 8.4 6.3760913755609057 2 6.749216252923171 12.999360889738847 2 6.3765204151840651 9.5641477074903776 2 9.0 9.4878634028805013 2 5.2037484388204742 6.018070993265777 2 7.2575874338795554 9.993225633731841 2 6.4979773371654233 4.4442584950896009 2 5.3713131906801364 7.6674462569208339 2 3.5871743287152125 10.300816685190348 2 7.9667444763757471 9.0151166391451589 2 9.0 3.770645332254996 2 8.4 12.758234404953724 2 7.8062748236042792 3.8358373669519645 2 6.7016503732479782 7.6768184055917486 2 5.3272724399763218 4.3175672311597006 2 6.3905325474275907 5.5344765017342974 2 </DataArray>
</Points>
<Cells>
<DataArray Name="connectivity" format="ascii" type="Int32">0</DataArray>
<DataArray Name="offsets" format="ascii" type="Int32">0</DataArray>
<DataArray Name="types" format="ascii" type="UInt8">1</DataArray>
</Cells>
<PointData>
<DataArray Name="Points" NumberOfComponents="3" format="ascii" type="Float32">6.5449097062879646 1 2 4.7774309105353217 9.4127302125861032 2 7.6785962830582308 1 2 9.0 1 2 8.4 7.7814065440302578 2 3.0177299176598034 8.7857039603468365 2 9.0 2.4628016723976383 2 8.4 1.7001940028135314 2 8.4 11.0824172576466 2 3.8276350795909133 7.7911981810792925 2 8.4 5.1776582734221224 2 8.4 6.3760913755609057 2 6.749216252923171 12.999360889738847 2 6.3765204151840651 9.5641477074903776 2 9.0 9.4878634028805013 2 5.2037484388204742 6.018070993265777 2 7.2575874338795554 9.993225633731841 2 6.4979773371654233 4.4442584950896009 2 5.3713131906801364 7.6674462569208339 2 3.5871743287152125 10.300816685190348 2 7.9667444763757471 9.0151166391451589 2 9.0 3.770645332254996 2 8.4 12.758234404953724 2 7.8062748236042792 3.8358373669519645 2 6.7016503732479782 7.6768184055917486 2 5.3272724399763218 4.3175672311597006 2 6.3905325474275907 5.5344765017342974 2 </DataArray>
<DataArray Name="forces" NumberOfComponents="3" format="ascii" type="Float32">-0.10739202258125946 -1.8519385476769479 0.0 0.04488214436588811 0.37143681193966349 0.0 -0.2920894817548127 -1.8483287693555674 0.0 1.7218804133645633 -1.8418017084023626 0.0 1.8709617958308722 0.43500371991301412 0.0 0.092554620564791357 0.023134653749145695 0.0 1.9954065584691345 0.57300013753017975 0.0 1.1099680402143011 -0.75130211199844565 0.0 1.5375266945808652 0.36523229169903404 0.0 -0.049138508407849404 0.035824414314553729 0.0 1.5938019654915905 0.16480322632512717 0.0 1.3404503949158311 0.31678482483258913 0.0 0.057433641332418628 0.20897869767197086 0.0 0.07012897119834767 0.071764907350090557 0.0 1.541147850825189 0.21330703561936198 0.0 0.22280091633951438 0.39002241695777651 0.0 -0.009613397218655062 0.12303490003083956 0.0 0.030120831094269884 0.34657190811322658 0.0 0.00067765516702893158 0.55719752980140669 0.0 -0.030802969511167844 0.30937599167687507 0.0 -0.024360751129913649 0.18843034167912676 0.0 2.1142046791390277 0.14174304906828789 0.0 1.4974325618112843 0.34604822373082322 0.0 -0.11604089697560621 0.035002398150386638 0.0 0.15272767378741051 -0.0061609330229475678 0.0 0.055113082267371327 0.12902693956099437 0.0 0.27340447251394173 0.29310537900101258 0.0 </DataArray>
<DataArray Name="radii" format="ascii" type="Float32">1 1.5999999999999999 1 1 1.5999999999999999 1 1 1.5999999999999999 1.5999999999999999 1 1.5999999999999999 1.5999999999999999 1 1 1 1.5999999999999999 1 1 1.5999999999999999 1.5999999999999999 1 1 1.5999999999999999 1.5999999999999999 1.5999999999999999 1 1 </DataArray>
</PointData>
<CellData/>
</Piece>
</UnstructuredGrid>
</VTKFile>
