<?xml version="1.0" ?>
<VTKFile byte_order="LittleEndian" type="UnstructuredGrid" version="0.1">
<UnstructuredGrid>
<Piece NumberOfCells="0" NumberOfPoints="5">
<Points>
<DataArray NumberOfComponents="3" format="ascii" type="Float32">4.4995922179062093 1 2 5.8210245919516286 2.7639350203422053 2 7.1645153628011498 1 2 9.0 1 2 8.5706162903400269 3.3454775503979177 2 </DataArray>
</Points>
<Cells>
<DataArray Name="connectivity" format="ascii" type="Int32">0</DataArray>
<DataArray Name="offsets" format="ascii" type="Int32">0</DataArray>
<DataArray Name="types" format="ascii" type="UInt8">1</DataArray>
</Cells>
<PointData>
<DataArray Name="Points" NumberOfComponents="3" format="ascii" type="Float32">4.4995922179062093 1 2 5.8210245919516286 2.7639350203422053 2 7.1645153628011498 1 2 9.0 1 2 8.5706162903400269 3.3454775503979177 2 </DataArray>
<DataArray Name="forces" NumberOfComponents="3" format="ascii" type="Float32">0.1085895962200023 -0.17169312889253238 0.0 0.012942420924403925 0.15005642743397574 0.0 -0.058999218176199492 -0.1662808496209397 0.0 0.19756364761421671 -0.017448368295104155 0.0 -0.0031848869214630916 0.017448368295104155 0.0 </DataArray>
<DataArray Name="radii" format="ascii" type="Float32">1 1.4 1 1 1.4 </DataArray>
</PointData>
<CellData/>
</Piece>
</UnstructuredGrid>
</VTKFile>
