<?xml version="1.0" ?>
<VTKFile byte_order="LittleEndian" type="UnstructuredGrid" version="0.1">
<UnstructuredGrid>
<Piece NumberOfCells="0" NumberOfPoints="15">
<Points>
<DataArray NumberOfComponents="3" format="ascii" type="Float32">1.0 1 2 3.1561364559411449 1 2 1 4.084424165117551 2 4.7259735862807455 9.6529674464711572 2 2.2630857833473179 9.6783208180406817 2 6.4443471116023616 8.0160444866984815 2 4.1740067648482864 2.7554102973770185 2 7.145383242967303 12.72521240372293 2 1.7311520963498195 7.8138275307876297 2 2.2364395991370025 2.5615638310686375 2 6.2100325308453614 10.953453728856701 2 1 11.228470937660909 2 4.3296934702049228 4.6477098632530947 2 9.0 11.980330855945381 2 1 5.9330436658944672 2 </DataArray>
</Points>
<Cells>
<DataArray Name="connectivity" format="ascii" type="Int32">0</DataArray>
<DataArray Name="offsets" format="ascii" type="Int32">0</DataArray>
<DataArray Name="types" format="ascii" type="UInt8">1</DataArray>
</Cells>
<PointData>
<DataArray Name="Points" NumberOfComponents="3" format="ascii" type="Float32">1.0 1 2 3.1561364559411449 1 2 1 4.084424165117551 2 4.7259735862807455 9.6529674464711572 2 2.2630857833473179 9.6783208180406817 2 6.4443471116023616 8.0160444866984815 2 4.1740067648482864 2.7554102973770185 2 7.145383242967303 12.72521240372293 2 1.7311520963498195 7.8138275307876297 2 2.2364395991370025 2.5615638310686375 2 6.2100325308453614 10.953453728856701 2 1 11.228470937660909 2 4.3296934702049228 4.6477098632530947 2 9.0 11.980330855945381 2 1 5.9330436658944672 2 </DataArray>
<DataArray Name="forces" NumberOfComponents="3" format="ascii" type="Float32">0.0 0.0 0.0 -0.10757678142114531 -0.084919077089923883 0.0 -0.14064519400299763 0.16264214690696061 0.0 0.020835797520332513 0.035707249506453251 0.0 0.015151011222680496 -0.018458281389411833 0.0 0.0 0.0 0.0 -0.051352615685159857 0.11446921232386034 0.0 0.0057090171395635199 0.011983707263663154 0.0 0.044179213332932024 0.10952508673864152 0.0 0.11202502475312391 -0.11822781589859202 0.0 -0.013283786468572615 -0.008929215595870843 0.0 -0.015151011222680496 0.018458281389411833 0.0 0.010339534389071876 -0.089494490068132218 0.0 0.0013766890634424192 0.0014968955154815173 0.0 -0.076876450811676059 -0.11088632570262139 0.0 </DataArray>
<DataArray Name="radii" format="ascii" type="Float32">1 1 1 1 1 1 1 1 1 1 1 1 1 1 1 </DataArray>
</PointData>
<CellData/>
</Piece>
</UnstructuredGrid>
</VTKFile>
