<?xml version="1.0" ?>
<VTKFile byte_order="LittleEndian" type="UnstructuredGrid" version="0.1">
<UnstructuredGrid>
<Piece NumberOfCells="0" NumberOfPoints="61">
<Points>
<DataArray NumberOfComponents="3" format="ascii" type="Float32">1.5999999999999999 1.5999999999999999 2 4.8499529532673726 1.2 2 1.2 6.7239052257620751 2 5.8614049902781034 12.292849461086659 2 2.0760347800668932 20.694933049617163 2 6.8896682301353316 11.563550023565785 2 5.2479989610872915 3.331690363819837 2 8.1671540229686617 20.543350686275062 2 1.2 10.859742981072362 2 1.2 2.7088274287955985 2 6.1823334830387466 16.70756339491248 2 1.2 16.688130173394502 2 3.9500205792654968 6.4500499757242142 2 8.8 16.592818103822573 2 1 8.7681815785843913 2 1.2 5.6900637709909576 2 2.5860628155981931 12.659518329969803 2 3.6034438183231807 15.034708392932806 2 7.0393667301002756 2.1321795010229869 2 5.767338077412135 18.592274015466373 2 1.2 14.584981555499139 2 3.0634095259855649 2.0799189127116158 2 4.5484737976739726 19.560615903764013 2 7.4185404327081299 14.73156631129717 2 2.4998404068452782 7.8729548622786893 2 5.4546869702886349 11.021625628888984 2 4.431875706670672 17.112775094317268 2 3.7302256745898692 4.7398304822059281 2 6.1258053777469499 20.413834240340993 2 1.2 13.259208759073829 2 2.7795815139620021 3.0419023616361818 2 5.2845095348119706 14.84556356408627 2 9.0 14.759731593554909 2 1.2 3.6735826279516961 2 5.7710968817647101 1.2 2 2.7755507307163234 16.859036820539586 2 3.9504846181146651 1.2 2 2.7742634892994915 6.4795583467036773 2 4.5420275475079066 13.158599611429132 2 1.2 18.630693787855549 2 4.1560758351833771 3.6315713175644602 2 8.8 18.554764282673439 2 2.4082342071325846 10.151948272773486 2 1.2 1.2 2 7.5364567409311256 16.172660860866024 2 4.7730998039775256 5.1995500882285786 2 7.2816399943766061 18.351613119480405 2 2.6404394189961313 4.1053624098550605 2 4.0897951029176429 11.764586392172641 2 7.4258538494132811 2.9745466509477567 2 2.2900081294354471 15.187998009719054 2 1.2 7.7764304453644355 2 2.6452693722646443 5.3653771342553407 2 1.2 11.96277420216135 2 4.2449792386867857 2.5259903366806551 2 1.2 4.6665755039399937 2 5.8892885523415783 2.5571134660916721 2 3.0628362358151349 18.794245478650165 2 1 9.701162072739093 2 3.1494104361424915 13.684617465502878 2 2.8931705834413504 1 2 </DataArray>
</Points>
<Cells>
<DataArray Name="connectivity" format="ascii" type="Int32">0</DataArray>
<DataArray Name="offsets" format="ascii" type="Int32">0</DataArray>
<DataArray Name="types" format="ascii" type="UInt8">1</DataArray>
</Cells>
<PointData>
<DataArray Name="Points" NumberOfComponents="3" format="ascii" type="Float32">1.5999999999999999 1.5999999999999999 2 4.8499529532673726 1.2 2 1.2 6.7239052257620751 2 5.8614049902781034 12.292849461086659 2 2.0760347800668932 20.694933049617163 2 6.8896682301353316 11.563550023565785 2 5.2479989610872915 3.331690363819837 2 8.1671540229686617 20.543350686275062 2 1.2 10.859742981072362 2 1.2 2.7088274287955985 2 6.1823334830387466 16.70756339491248 2 1.2 16.688130173394502 2 3.9500205792654968 6.4500499757242142 2 8.8 16.592818103822573 2 1 8.7681815785843913 2 1.2 5.6900637709909576 2 2.5860628155981931 12.659518329969803 2 3.6034438183231807 15.034708392932806 2 7.0393667301002756 2.1321795010229869 2 5.767338077412135 18.592274015466373 2 1.2 14.584981555499139 2 3.0634095259855649 2.0799189127116158 2 4.5484737976739726 19.560615903764013 2 7.4185404327081299 14.73156631129717 2 2.4998404068452782 7.8729548622786893 2 5.4546869702886349 11.021625628888984 2 4.431875706670672 17.112775094317268 2 3.7302256745898692 4.7398304822059281 2 6.1258053777469499 20.413834240340993 2 1.2 13.259208759073829 2 2.7795815139620021 3.0419023616361818 2 5.2845095348119706 14.84556356408627 2 9.0 14.759731593554909 2 1.2 3.6735826279516961 2 5.7710968817647101 1.2 2 2.7755507307163234 16.859036820539586 2 3.9504846181146651 1.2 2 2.7742634892994915 6.4795583467036773 2 4.5420275475079066 13.158599611429132 2 1.2 18.630693787855549 2 4.1560758351833771 3.6315713175644602 2 8.8 18.554764282673439 2 2.4082342071325846 10.151948272773486 2 1.2 1.2 2 7.5364567409311256 16.172660860866024 2 4.7730998039775256 5.1995500882285786 2 7.2816399943766061 18.351613119480405 2 2.6404394189961313 4.1053624098550605 2 4.0897951029176429 11.764586392172641 2 7.4258538494132811 2.9745466509477567 2 2.2900081294354471 15.187998009719054 2 1.2 7.7764304453644355 2 2.6452693722646443 5.3653771342553407 2 1.2 11.96277420216135 2 4.2449792386867857 2.5259903366806551 2 1.2 4.6665755039399937 2 5.8892885523415783 2.5571134660916721 2 3.0628362358151349 18.794245478650165 2 1 9.701162072739093 2 3.1494104361424915 13.684617465502878 2 2.8931705834413504 1 2 </DataArray>
<DataArray Name="forces" NumberOfComponents="3" format="ascii" type="Float32">-0.8456284442712938 -1.2028708406361619 0.0 -0.018415236735464441 -1.6714940107737164 0.0 -1.5873161953741215 0.18485225883423018 0.0 0.090359063743782636 0.1168075463048012 0.0 -0.056892170910079226 0.37837354247279209 0.0 0.087994148750437651 0.14259235605693593 0.0 0.00051654906834575076 0.049205571683592852 0.0 0.072853964366221519 0.3455613045709735 0.0 -1.1886916381178489 0.14711243256370066 0.0 -1.8233158035312083 0.18040975259521841 0.0 0.010512468456231439 0.26894669657848352 0.0 -1.1320341181149847 0.19292801968119949 0.0 0.023539480269847535 0.18568966561339589 0.0 1.0781431250944471 0.26079447769213449 0.0 -1.1532383734259244 0.16437814253060368 0.0 -1.6449310570134679 0.18743350837258288 0.0 -0.034833843744366211 0.19037171677910147 0.0 0.13017252561401302 0.30673765734218794 0.0 0.033295627743246792 0.081204657074063102 0.0 -0.12552716436916478 0.2543566964107673 0.0 -1.0726370452212683 0.26339157500933508 0.0 -0.054778435160215244 0.11774961562855446 0.0 -0.060798603393204198 0.4171177087946813 0.0 -0.036830277852467168 0.23361342919695971 0.0 -0.020544868940423788 0.18645747979849772 0.0 -0.058329996623666475 0.22194528422949319 0.0 -0.011353152068042327 0.38000926129001145 0.0 0.06480757120466471 0.13790504703790613 0.0 0.053505538862354735 0.23151142958442744 0.0 -1.1045877534752562 0.17744875177748987 0.0 -0.032663583349918368 0.15895702073846257 0.0 0.0071976059988667074 0.33436154023479259 0.0 0.86283338433106571 0.1838895005252206 0.0 -1.7540013861532351 0.19210478124658481 0.0 -0.013105838015418689 -1.6465681104454863 0.0 -0.045745697657327014 0.3012287000087574 0.0 -0.028678996987789418 -1.7535038529854063 0.0 0.03356209406792493 0.16417821498705187 0.0 -0.001781820707770998 0.25658099555664943 0.0 -0.60780572426504287 0.28942808407598514 0.0 0.065167397697114937 0.10986332285885028 0.0 0.9584751927708276 0.25515713191811712 0.0 0.13490119452712857 0.17847495758793372 0.0 -2.195691982309715 -2.4760721604159577 0.0 0.0069249577433417933 0.27039169058856044 0.0 0.022507169448926195 0.13421077591068875 0.0 -0.056189941470750203 0.36342609877586368 0.0 0.077372440481655813 0.16713816221374145 0.0 -0.022467095683633757 0.29227711331125605 0.0 0.046621260004389375 0.11094361161640581 0.0 0.13485596336230102 0.15254994772792846 0.0 -1.3349031959253632 0.18185644982210186 0.0 0.015251112573027359 0.15676069586164926 0.0 -1.1550179620702286 0.10840941116599409 0.0 -0.052905267377608409 0.064835286059312741 0.0 -1.6078409416199089 0.19210578793820315 0.0 0.057075074330601328 0.08302621175471081 0.0 -0.032775180304371543 0.35030272279117358 0.0 -1.1072853748181326 0.19402543006139039 0.0 -0.054891542196624316 0.19730311095341557 0.0 -0.020856491458869822 -1.9592599722765187 0.0 </DataArray>
<DataArray Name="radii" format="ascii" type="Float32">1.5999999999999999 1.2 1.2 1.2 1.2 1 1.2 1.2 1.2 1.2 1.2 1.2 1.2 1.2 1 1.2 1.2 1 1.2 1 1.2 1 1 1.2 1.2 1.2 1.4 1.2 1 1.2 1.2 1.5999999999999999 1 1.2 1.2 1.2 1.2 1.2 1.2 1.2 1.2 1.2 1.2 1.2 1.2 1.2 1.2 1.2 1.2 1.2 1.2 1.2 1.2 1.2 1.2 1.2 1.2 1.2 1 1 1 </DataArray>
</PointData>
<CellData/>
</Piece>
</UnstructuredGrid>
</VTKFile>
