<?xml version="1.0" ?>
<VTKFile byte_order="LittleEndian" type="UnstructuredGrid" version="0.1">
<UnstructuredGrid>
<Piece NumberOfCells="0" NumberOfPoints="9">
<Points>
<DataArray NumberOfComponents="3" format="ascii" type="Float32">1 1 2 2.9494789913369392 1 2 1.4 3.3478070385117666 2 5.2395869701232307 8.9492194410818229 2 1.5375079995614112 8.9151705636517651 2 6.6870904861655953 7.0432722990565608 2 4.0806639682038677 3.0918023262444283 2 7.6187037672945177 10.903309363292969 2 1.4 6.1212200211299308 2 </DataArray>
</Points>
<Cells>
<DataArray Name="connectivity" format="ascii" type="Int32">0</DataArray>
<DataArray Name="offsets" format="ascii" type="Int32">0</DataArray>
<DataArray Name="types" format="ascii" type="UInt8">1</DataArray>
</Cells>
<PointData>
<DataArray Name="Points" NumberOfComponents="3" format="ascii" type="Float32">1 1 2 2.9494789913369392 1 2 1.4 3.3478070385117666 2 5.2395869701232307 8.9492194410818229 2 1.5375079995614112 8.9151705636517651 2 6.6870904861655953 7.0432722990565608 2 4.0806639682038677 3.0918023262444283 2 7.6187037672945177 10.903309363292969 2 1.4 6.1212200211299308 2 </DataArray>
<DataArray Name="forces" NumberOfComponents="3" format="ascii" type="Float32">-0.034684807706639939 -0.024732849678675325 0.0 -0.04005120351354903 -0.13777793464575894 0.0 -0.17927718264062137 0.027395076177885218 0.0 0.0093824912537340439 0.018237473311533962 0.0 0.0 0.0 0.0 0.073023798507150656 0.053856464774037063 0.0 0.17619409892495408 0.19963448464222805 0.0 -0.010960454352422402 0.029105517672290374 0.0 -0.0064983926553880238 0.017371768184801149 0.0 </DataArray>
<DataArray Name="radii" format="ascii" type="Float32">1 1 1.4 1.4 1.4 1 1.4 1.4 1.4 </DataArray>
</PointData>
<CellData/>
</Piece>
</UnstructuredGrid>
</VTKFile>
