<?xml version="1.0" ?>
<VTKFile byte_order="LittleEndian" type="UnstructuredGrid" version="0.1">
<UnstructuredGrid>
<Piece NumberOfCells="0" NumberOfPoints="36">
<Points>
<DataArray NumberOfComponents="3" format="ascii" type="Float32">1 1 2 3.6427446861006221 1 2 1 6.4389357688735913 2 4.3517381830484636 11.671065104083944 2 2.7685781305745141 16.502667506446183 2 6.3815327989058632 10.504711506252663 2 3.9213391851944843 2.435866435578387 2 8.2064571380109985 17.171403029831417 2 1.2886028358508357 9.9102384598866085 2 1 2.3886843795622239 2 6.0057555899145054 14.576088287568261 2 1 15.864219073980996 2 3.1030063205920584 5.7018466375956169 2 7.6731008669587295 15.313883458222161 2 1 8.2374119135727355 2 1.4848931230542615 5.143605641249005 2 2.5597242034687553 11.402758817917368 2 2.9665023683491714 13.032396126660906 2 5.6962426215829414 2.467238255365058 2 6.3272174628330786 16.511989993405432 2 1 13.321147715799697 2 2.3449751288120622 1 2 4.5614971603288517 17.053286913366971 2 7.4304204008168764 13.350106601824661 2 2.1619992712958473 7.0172814882924595 2 4.9542525086052347 10.117924676344643 2 4.1639678806029092 15.122523614409717 2 2.8871682690970464 4.0882198742409592 2 7.2145641021374241 18.894718757973557 2 1 11.555535023824904 2 2.4310962400177227 2.6194761683224845 2 4.7708612520767399 13.34362191370648 2 9.0 14.309370703853384 2 1 3.8485661330465244 2 5.013718803808719 1 2 2.3245525453136868 14.638404302476491 2 </DataArray>
</Points>
<Cells>
<DataArray Name="connectivity" format="ascii" type="Int32">0</DataArray>
<DataArray Name="offsets" format="ascii" type="Int32">0</DataArray>
<DataArray Name="types" format="ascii" type="UInt8">1</DataArray>
</Cells>
<PointData>
<DataArray Name="Points" NumberOfComponents="3" format="ascii" type="Float32">1 1 2 3.6427446861006221 1 2 1 6.4389357688735913 2 4.3517381830484636 11.671065104083944 2 2.7685781305745141 16.502667506446183 2 6.3815327989058632 10.504711506252663 2 3.9213391851944843 2.435866435578387 2 8.2064571380109985 17.171403029831417 2 1.2886028358508357 9.9102384598866085 2 1 2.3886843795622239 2 6.0057555899145054 14.576088287568261 2 1 15.864219073980996 2 3.1030063205920584 5.7018466375956169 2 7.6731008669587295 15.313883458222161 2 1 8.2374119135727355 2 1.4848931230542615 5.143605641249005 2 2.5597242034687553 11.402758817917368 2 2.9665023683491714 13.032396126660906 2 5.6962426215829414 2.467238255365058 2 6.3272174628330786 16.511989993405432 2 1 13.321147715799697 2 2.3449751288120622 1 2 4.5614971603288517 17.053286913366971 2 7.4304204008168764 13.350106601824661 2 2.1619992712958473 7.0172814882924595 2 4.9542525086052347 10.117924676344643 2 4.1639678806029092 15.122523614409717 2 2.8871682690970464 4.0882198742409592 2 7.2145641021374241 18.894718757973557 2 1 11.555535023824904 2 2.4310962400177227 2.6194761683224845 2 4.7708612520767399 13.34362191370648 2 9.0 14.309370703853384 2 1 3.8485661330465244 2 5.013718803808719 1 2 2.3245525453136868 14.638404302476491 2 </DataArray>
<DataArray Name="forces" NumberOfComponents="3" format="ascii" type="Float32">-0.65190786742420181 -0.61349517442786716 0.0 -0.030373512572912764 -0.53159320407307298 0.0 -0.84810978793293157 0.062320220548163663 0.0 -0.025912248893311618 0.05630932802734917 0.0 -0.014361506250794905 0.11276993618505962 0.0 0.0014587655615072581 0.10148967949272281 0.0 0.028609700045450104 0.031559562164132915 0.0 0.030503249476633593 0.054760563153612059 0.0 -0.057426639346679388 0.073386203529489158 0.0 -0.5913406745241343 0.032605657679484534 0.0 -0.0021145354569522545 0.13121807246002781 0.0 -0.25553376281442253 0.093509656714862999 0.0 -0.028090601438864223 -0.0053382811820463227 0.0 0.029842516052571322 0.1038108960110051 0.0 -0.58722286066385099 0.043239588844733806 0.0 -0.035372943489755587 0.046638932188937998 0.0 -0.030466995497395843 0.058929039488266936 0.0 -0.017597337473146568 0.070224554348574442 0.0 -0.0011468245328664084 0.0094008251212256144 0.0 -0.0079579747999794781 0.12231811036334647 0.0 -0.10340867302558836 0.14543920513790831 0.0 -0.021656867726584667 -0.42452036442180241 0.0 -0.024832253468525148 0.10964301751608697 0.0 -0.025098956767242275 0.10489048931623872 0.0 0.028453989273459893 0.040774567656688708 0.0 -0.0062858531451376876 0.041114447395086545 0.0 0.00033482655974548248 0.10571818871075694 0.0 -0.012481326557578998 0.02676824848461061 0.0 -0.0040286934328794639 0.0070627272664070028 0.0 -0.48780770689910891 0.13413406186426075 0.0 0.018155499673584027 0.010656850031082105 0.0 -0.014193125017321347 0.090438316762224982 0.0 0.4057626005116729 0.022222199508926579 0.0 -0.40307566110476728 0.025030788327767825 0.0 -0.0152103833779203 -0.49990222464035644 0.0 0.02216789212502332 0.10681406352613219 0.0 </DataArray>
<DataArray Name="radii" format="ascii" type="Float32">1 1 1 1 1 1 1 1 1 1 1 1 1 1 1 1 1 1 1 1 1 1 1 1 1 1 1 1 1 1 1 1 1 1 1 1 </DataArray>
</PointData>
<CellData/>
</Piece>
</UnstructuredGrid>
</VTKFile>
