<?xml version="1.0" ?>
<VTKFile byte_order="LittleEndian" type="UnstructuredGrid" version="0.1">
<UnstructuredGrid>
<Piece NumberOfCells="0" NumberOfPoints="58">
<Points>
<DataArray NumberOfComponents="3" format="ascii" type="Float32">6.6717098391968843 1 2 4.8389453710458525 9.9885331389347218 2 7.9044041558051212 1 2 9.0 1 2 9.0 9.2628789560505016 2 3.2448355165563196 9.4280928437566676 2 9.0 1.8758767377044776 2 8.842967498503679 1 2 9.0 11.061100483715048 2 3.9005771866811543 8.1897049482148212 2 9.0 6.1696728681084778 2 8.1290995391248408 6.9864235599831606 2 6.4742664536529544 14.124339421992717 2 6.5765347859425516 10.297205414348594 2 9.0 10.168916311115087 2 5.4545070949256651 6.9218060058170154 2 7.3823782741278494 10.533871366789999 2 6.4289111605511824 4.1576801176016609 2 5.9615339176314652 7.6619894061448823 2 3.3571564385572885 11.221883731931671 2 8.1556643027102371 10.006459160947987 2 9.0 4.0612780414721907 2 9.0 13.97172202715355 2 7.1644899178047279 4.0630704634478532 2 7.2338867393479891 7.76999905125954 2 6.2507913848556074 5.0386028204798299 2 6.7109319199638238 5.7699374203241831 2 5.0446319561154516 9.0873140751079067 2 7.5588282380395695 9.212153508052598 2 9.0 3.2856380354131316 2 9.0 12.984878956027064 2 9.0 4.7561455899956675 2 7.9874754781168962 8.380685635935281 2 6.4287469799418444 6.811838532610949 2 6.4531618792473475 9.4117704470456296 2 3.8938282504176036 10.050548091437257 2 7.3246251311563446 13.26881650088413 2 8.008189560866839 5.4718600780756539 2 7.3329587326415249 6.9584597090620308 2 4.3015651995595938 10.917558264341206 2 9.0 7.713292716231642 2 9.0 2.5286898156478013 2 7.9755826443826363 11.545710973187189 2 9.0 5.4754938736222503 2 9.0 6.9193556304701813 2 4.8481814234468654 6.0010194354385442 2 6.7697089144610656 8.540284191934342 2 4.0490479437124396 12.125471638509618 2 7.8711931941683426 14.013126175255453 2 7.4116061316847492 2.9772010888825511 2 5.7571840368211218 8.6558379100605745 2 5.0497232274958233 7.8946932958412281 2 7.6252804825604308 4.7154853604567677 2 9.0 12.05920116584263 2 8.0133845486259982 3.9705572655993224 2 9.0 8.4763635094655907 2 4.0354186910525742 8.9857837462602408 2 7.4643750256829851 5.8963004605946683 2 </DataArray>
</Points>
<Cells>
<DataArray Name="connectivity" format="ascii" type="Int32">0</DataArray>
<DataArray Name="offsets" format="ascii" type="Int32">0</DataArray>
<DataArray Name="types" format="ascii" type="UInt8">1</DataArray>
</Cells>
<PointData>
<DataArray Name="Points" NumberOfComponents="3" format="ascii" type="Float32">6.6717098391968843 1 2 4.8389453710458525 9.9885331389347218 2 7.9044041558051212 1 2 9.0 1 2 9.0 9.2628789560505016 2 3.2448355165563196 9.4280928437566676 2 9.0 1.8758767377044776 2 8.842967498503679 1 2 9.0 11.061100483715048 2 3.9005771866811543 8.1897049482148212 2 9.0 6.1696728681084778 2 8.1290995391248408 6.9864235599831606 2 6.4742664536529544 14.124339421992717 2 6.5765347859425516 10.297205414348594 2 9.0 10.168916311115087 2 5.4545070949256651 6.9218060058170154 2 7.3823782741278494 10.533871366789999 2 6.4289111605511824 4.1576801176016609 2 5.9615339176314652 7.6619894061448823 2 3.3571564385572885 11.221883731931671 2 8.1556643027102371 10.006459160947987 2 9.0 4.0612780414721907 2 9.0 13.97172202715355 2 7.1644899178047279 4.0630704634478532 2 7.2338867393479891 7.76999905125954 2 6.2507913848556074 5.0386028204798299 2 6.7109319199638238 5.7699374203241831 2 5.0446319561154516 9.0873140751079067 2 7.5588282380395695 9.212153508052598 2 9.0 3.2856380354131316 2 9.0 12.984878956027064 2 9.0 4.7561455899956675 2 7.9874754781168962 8.380685635935281 2 6.4287469799418444 6.811838532610949 2 6.4531618792473475 9.4117704470456296 2 3.8938282504176036 10.050548091437257 2 7.3246251311563446 13.26881650088413 2 8.008189560866839 5.4718600780756539 2 7.3329587326415249 6.9584597090620308 2 4.3015651995595938 10.917558264341206 2 9.0 7.713292716231642 2 9.0 2.5286898156478013 2 7.9755826443826363 11.545710973187189 2 9.0 5.4754938736222503 2 9.0 6.9193556304701813 2 4.8481814234468654 6.0010194354385442 2 6.7697089144610656 8.540284191934342 2 4.0490479437124396 12.125471638509618 2 7.8711931941683426 14.013126175255453 2 7.4116061316847492 2.9772010888825511 2 5.7571840368211218 8.6558379100605745 2 5.0497232274958233 7.8946932958412281 2 7.6252804825604308 4.7154853604567677 2 9.0 12.05920116584263 2 8.0133845486259982 3.9705572655993224 2 9.0 8.4763635094655907 2 4.0354186910525742 8.9857837462602408 2 7.4643750256829851 5.8963004605946683 2 </DataArray>
<DataArray Name="forces" NumberOfComponents="3" format="ascii" type="Float32">0.11058131677642108 -2.0287146604303694 0.0 -0.053299724875686738 0.12273589875475027 0.0 0.094685100246078582 -2.271992513665114 0.0 3.5468079226230507 -1.9662809770217777 0.0 1.7025186164211388 0.24423490312412643 0.0 0.0063541039435459634 0.11114006376069807 0.0 2.2719150017154539 0.095316915249550327 0.0 0.014439114610480197 -2.0503078171298021 0.0 1.8661113780144614 0.20452237801545214 0.0 0.052671159644025745 0.1734191718351934 0.0 1.8022067858242645 0.097090881125593387 0.0 0.036897055320217864 0.19034177124947382 0.0 0.17532600979810165 0.24983286885826006 0.0 0.056138388539253362 0.22455180125683924 0.0 1.8484137481180514 0.2468042908594012 0.0 -0.070552248643231119 0.13520641649356413 0.0 0.04716900661680043 0.18921071063569878 0.0 0.028915210639705743 0.095674971652922075 0.0 0.16427013714761421 0.071363102150930502 0.0 0.010288430570535384 0.16943506932776786 0.0 -0.081609387412900303 0.0073660909026522503 0.0 2.2162221037716252 0.086111369686282746 0.0 1.6558118562101651 0.20969172840078859 0.0 0.11105430981690784 -0.041184326313468689 0.0 0.076904019145492677 0.044604249499027318 0.0 0.10562664007780082 0.10953088901730229 0.0 -0.017742697071311042 0.13957931178642555 0.0 0.067722451574385611 0.19221131085061008 0.0 0.062167940117768328 0.096781220260045486 0.0 2.2670747910157734 0.27166226243554287 0.0 1.3780390856488365 0.21635739401550458 0.0 1.9715483355399148 0.025653932163187114 0.0 0.0040687505946258584 0.2486775041295439 0.0 -0.089786924627546949 0.16940789497916303 0.0 -0.012359304620582545 0.10678756897125452 0.0 -0.07316363148187649 0.30307492510394807 0.0 0.17252813649832799 0.097869238277036974 0.0 0.1051019507502633 0.13387112025782588 0.0 0.030255955560826997 -0.0073693667450931422 0.0 0.063668484093734587 0.22052993585390551 0.0 1.7094179617848189 0.15889526158549772 0.0 2.3853079876174363 0.16687441021627214 0.0 0.06510752397286379 0.050767453911935156 0.0 2.0116437797248992 0.050584329755620314 0.0 1.8803792149716623 0.15515047762109979 0.0 -0.015411193386532629 0.058453684417662244 0.0 0.11724799652728166 0.19847765540148987 0.0 0.059919273874085466 0.27910332705630214 0.0 0.00078863123363229898 0.30185820305729977 0.0 0.0063481006989071775 0.17537240891269743 0.0 0.067502973901121976 0.018976471070878284 0.0 0.033324332950215141 0.21246698425700777 0.0 -0.13064818409548135 0.25818707716961709 0.0 1.565276690941392 0.2631889300748943 0.0 -0.02665714959863813 0.15925491768352262 0.0 1.6639953403554404 0.12431396742403455 0.0 0.016615217386387937 0.20796349530856476 0.0 0.045853513764996301 0.17812467330238554 0.0 </DataArray>
<DataArray Name="radii" format="ascii" type="Float32">1 1 1 1 1 1 1 1 1 1 1 1 1 1 1 1 1 1 1 1 1 1 1 1 1 1 1 1 1 1 1 1 1 1 1 1 1 1 1 1 1 1 1 1 1 1 1 1 1 1 1 1 1 1 1 1 1 1 </DataArray>
</PointData>
<CellData/>
</Piece>
</UnstructuredGrid>
</VTKFile>
