<?xml version="1.0" ?>
<VTKFile byte_order="LittleEndian" type="UnstructuredGrid" version="0.1">
<UnstructuredGrid>
<Piece NumberOfCells="0" NumberOfPoints="36">
<Points>
<DataArray NumberOfComponents="3" format="ascii" type="Float32">1 1 2 3.9557936052343621 1.4 2 1.4 6.7271039121958065 2 5.0455177653477863 12.111200328772753 2 2.3854390412597031 18.291991244818025 2 6.7784204117993605 11.228958812224038 2 4.5164902901724364 3.1461613056122819 2 8.6 18.465606106262776 2 1.4 10.18118133206899 2 1.4 2.2812908565273839 2 6.1712270620513001 15.454345748745883 2 1 16.408219530981135 2 3.396360704487801 5.5787056181910994 2 8.5011641561060891 16.103715524254643 2 1.2 8.5779948594760196 2 1.4 5.2208085529108947 2 3.1751979336157992 12.128718306895427 2 3.5449850298233119 13.965793785954226 2 6.2349787815002156 2.6342196609107478 2 6.5303403926132635 17.460576360933914 2 1.4 14.15223529598596 2 2.4724522832385829 1.2 2 4.6643422016825342 17.757346232208679 2 7.2982686791482347 14.088987361037059 2 2.6350523350975492 7.3845434093167563 2 5.413183873109773 10.552276766713158 2 4.4876195422265459 15.900234318749934 2 3.1100228971508677 4.2318833438193524 2 6.5561021291162023 19.35798556907941 2 1.4 12.075840086753782 2 2.9688651973160076 2.6654405978438835 2 5.1984011164515813 13.933695584712536 2 9.0 14.386343732417517 2 1.4 3.7997034833822547 2 5.3220014478106457 1.4 2 2.7941158793981673 15.885501354288651 2 </DataArray>
</Points>
<Cells>
<DataArray Name="connectivity" format="ascii" type="Int32">0</DataArray>
<DataArray Name="offsets" format="ascii" type="Int32">0</DataArray>
<DataArray Name="types" format="ascii" type="UInt8">1</DataArray>
</Cells>
<PointData>
<DataArray Name="Points" NumberOfComponents="3" format="ascii" type="Float32">1 1 2 3.9557936052343621 1.4 2 1.4 6.7271039121958065 2 5.0455177653477863 12.111200328772753 2 2.3854390412597031 18.291991244818025 2 6.7784204117993605 11.228958812224038 2 4.5164902901724364 3.1461613056122819 2 8.6 18.465606106262776 2 1.4 10.18118133206899 2 1.4 2.2812908565273839 2 6.1712270620513001 15.454345748745883 2 1 16.408219530981135 2 3.396360704487801 5.5787056181910994 2 8.5011641561060891 16.103715524254643 2 1.2 8.5779948594760196 2 1.4 5.2208085529108947 2 3.1751979336157992 12.128718306895427 2 3.5449850298233119 13.965793785954226 2 6.2349787815002156 2.6342196609107478 2 6.5303403926132635 17.460576360933914 2 1.4 14.15223529598596 2 2.4724522832385829 1.2 2 4.6643422016825342 17.757346232208679 2 7.2982686791482347 14.088987361037059 2 2.6350523350975492 7.3845434093167563 2 5.413183873109773 10.552276766713158 2 4.4876195422265459 15.900234318749934 2 3.1100228971508677 4.2318833438193524 2 6.5561021291162023 19.35798556907941 2 1.4 12.075840086753782 2 2.9688651973160076 2.6654405978438835 2 5.1984011164515813 13.933695584712536 2 9.0 14.386343732417517 2 1.4 3.7997034833822547 2 5.3220014478106457 1.4 2 2.7941158793981673 15.885501354288651 2 </DataArray>
<DataArray Name="forces" NumberOfComponents="3" format="ascii" type="Float32">-1.0235411040866396 -1.1043209601009294 0.0 0.0097691419385110834 -1.8509392983846595 0.0 -1.5874965701587143 0.14791267843835554 0.0 0.018053651420977944 0.21764431244284888 0.0 -0.082992513449436561 0.42027797458713251 0.0 0.0742085051208944 0.19569696751348553 0.0 0.14119510010289893 0.22569206053445789 0.0 0.26878629562704887 0.4137369656841039 0.0 -1.1553896626651172 0.23751395083568427 0.0 -1.8303177215820408 0.087109381321999191 0.0 0.12393700851522621 0.35969145112323114 0.0 -0.56601031348982456 0.20580998699252109 0.0 0.038446083238844325 0.14426503890097089 0.0 0.21376944128260497 0.29606075847636804 0.0 -1.3600671820904546 0.1274854636526539 0.0 -1.628602553489539 0.093186912536024069 0.0 0.033045426629459418 0.31448979718799663 0.0 0.085939520421220272 0.31085644516495381 0.0 0.02522043153790185 0.13650958590599965 0.0 0.076449815195886742 0.19659928974194768 0.0 -0.86810071949896339 0.28635508759229195 0.0 0.036400280811403618 -1.8189858444724789 0.0 -0.038951497555904581 0.14046281497441093 0.0 0.029015707518882772 0.22434582741205467 0.0 0.041101412421327643 0.080050031010228118 0.0 0.090871816519801751 0.18413246665707764 0.0 0.077084615192203887 0.083256581441289154 0.0 0.033138470161708566 0.14474596412238125 0.0 -0.15711255372872193 0.1712713208598389 0.0 -1.1278835089716619 0.24366509629194136 0.0 0.10395383174024604 0.20249279999519543 0.0 0.15243723704874768 0.15493270027306058 0.0 0.58069332096586967 0.060675988965634975 0.0 -1.8031241876453952 0.071220649637594002 0.0 0.0010148121621439271 -1.6324649978675119 0.0 0.027310658883927807 0.44354658382905998 0.0 </DataArray>
<DataArray Name="radii" format="ascii" type="Float32">1 1.4 1.4 1.4 1.4 1 1.4 1.4 1.4 1.4 1.4 1 1.4 1.4 1.2 1.4 1.4 1.2 1.4 1 1.4 1.2 1 1 1.4 1 1 1.4 1 1.4 1.4 1 1 1.4 1.4 1.4 </DataArray>
</PointData>
<CellData/>
</Piece>
</UnstructuredGrid>
</VTKFile>
