<?xml version="1.0" ?>
<VTKFile byte_order="LittleEndian" type="UnstructuredGrid" version="0.1">
<UnstructuredGrid>
<Piece NumberOfCells="0" NumberOfPoints="27">
<Points>
<DataArray NumberOfComponents="3" format="ascii" type="Float32">6.4124505443072044 1 2 4.4286907528093087 8.5885402369356623 2 7.6951112943965541 1 2 9.0 1 2 9.0 6.9597815906583245 2 2.6122114493173569 8.6773196650342932 2 9.0 2.3587045220867378 2 7.362389608368396 2.6597839805079393 2 8.0010117673850818 11.161281139629162 2 3.6062179115126032 7.271948091597614 2 9.0 5.2810106512186969 2 7.6101281226660671 6.0292986629867045 2 6.1916267340377038 12.142143082686225 2 6.0477775805566418 8.6172926554639773 2 9.0 9.5403211484008015 2 4.505744965088871 5.1697904470870766 2 7.4711981446459932 9.4169981151001334 2 6.0668956990574641 3.9856819341189538 2 4.9963075966758295 6.8444253535835502 2 3.2891892748755369 10.050957425845565 2 7.9969281308939895 7.9585125088775621 2 9.0 3.726815023418474 2 9.0 12.455038619964954 2 7.5336833882124754 4.3400497060494647 2 6.5556308802545749 7.1709470851838732 2 4.5120538216839252 3.705534473083834 2 6.0706629906912006 5.5158494383724621 2 </DataArray>
</Points>
<Cells>
<DataArray Name="connectivity" format="ascii" type="Int32">0</DataArray>
<DataArray Name="offsets" format="ascii" type="Int32">0</DataArray>
<DataArray Name="types" format="ascii" type="UInt8">1</DataArray>
</Cells>
<PointData>
<DataArray Name="Points" NumberOfComponents="3" format="ascii" type="Float32">6.4124505443072044 1 2 4.4286907528093087 8.5885402369356623 2 7.6951112943965541 1 2 9.0 1 2 9.0 6.9597815906583245 2 2.6122114493173569 8.6773196650342932 2 9.0 2.3587045220867378 2 7.362389608368396 2.6597839805079393 2 8.0010117673850818 11.161281139629162 2 3.6062179115126032 7.271948091597614 2 9.0 5.2810106512186969 2 7.6101281226660671 6.0292986629867045 2 6.1916267340377038 12.142143082686225 2 6.0477775805566418 8.6172926554639773 2 9.0 9.5403211484008015 2 4.505744965088871 5.1697904470870766 2 7.4711981446459932 9.4169981151001334 2 6.0668956990574641 3.9856819341189538 2 4.9963075966758295 6.8444253535835502 2 3.2891892748755369 10.050957425845565 2 7.9969281308939895 7.9585125088775621 2 9.0 3.726815023418474 2 9.0 12.455038619964954 2 7.5336833882124754 4.3400497060494647 2 6.5556308802545749 7.1709470851838732 2 4.5120538216839252 3.705534473083834 2 6.0706629906912006 5.5158494383724621 2 </DataArray>
<DataArray Name="forces" NumberOfComponents="3" format="ascii" type="Float32">0.001959741287559158 -0.40791416761398724 0.0 -0.049753144114798115 0.044062147769696913 0.0 0.0021794555284045738 -0.38838824507534925 0.0 0.69479761232716619 -0.64356562626655833 0.0 0.68372213715300612 0.092143508395012064 0.0 -0.019578699090792601 0.043951497960856512 0.0 0.40989232465443454 0.033235105151936506 0.0 0.0084751003578245193 0.036819890230327557 0.0 0.012136667064796519 0.057505193345243955 0.0 0.035799164927805993 -0.018857341763392196 0.0 0.58808164197156276 0.063874422890469656 0.0 0.027051806611706086 0.090790271854570156 0.0 -0.030619596761976051 0.09637558405608955 0.0 -0.024253665397400814 0.070818106209687315 0.0 0.58405726888569387 0.063560448050143534 0.0 0.019483139756611978 0.082268276329911141 0.0 -0.02196118394705715 0.069848145281689811 0.0 -0.033696447266639951 -0.011660844281092875 0.0 0.064279911823362179 0.066615993013392799 0.0 -0.032805693510888856 0.062858272081235136 0.0 -0.010180612999835748 0.085859615104464243 0.0 0.41837078335998507 0.053752314154215414 0.0 0.39641619312260645 0.046396470263575795 0.0 -0.0061163112359205185 0.061114833081344272 0.0 0.010989756677734996 0.063565673329463057 0.0 -0.03650675737398007 0.064925757773654724 0.0 0.045505940544235568 0.019695949593371509 0.0 </DataArray>
<DataArray Name="radii" format="ascii" type="Float32">1 1 1 1 1 1 1 1 1 1 1 1 1 1 1 1 1 1 1 1 1 1 1 1 1 1 1 </DataArray>
</PointData>
<CellData/>
</Piece>
</UnstructuredGrid>
</VTKFile>
