<?xml version="1.0" ?>
<VTKFile byte_order="LittleEndian" type="UnstructuredGrid" version="0.1">
<UnstructuredGrid>
<Piece NumberOfCells="0" NumberOfPoints="24">
<Points>
<DataArray NumberOfComponents="3" format="ascii" type="Float32">1 1 2 4.0429378864401606 1 2 1.5999999999999999 6.4874183637815435 2 4.8404456929050896 11.206183235143582 2 3.1171208869925859 15.379130423816756 2 6.4093332440515756 9.8196459080956426 2 3.4336718595873501 3.0133242012719172 2 7.9246852586402881 17.671797705859991 2 1.5999999999999999 10.258354283681934 2 1.5999999999999999 2.3558734034907554 2 5.4624301103469115 13.823303895828461 2 1 15.235182063500039 2 3.2794173038604102 5.3354293084057804 2 8.4 14.625215631616191 2 1 8.296654164804977 2 1.5999999999999999 4.451104294310146 2 3.1096900100245803 10.965260423672312 2 3.5125917336587791 12.840557763011697 2 5.2795906578252669 2.0283507433425196 2 6.5278714162756151 15.739918836787009 2 1.5999999999999999 12.893927886462118 2 2.711056853816638 1 2 5.0589856776777866 16.535179627857865 2 7.3989228181052873 12.935630590719745 2 </DataArray>
</Points>
<Cells>
<DataArray Name="connectivity" format="ascii" type="Int32">0</DataArray>
<DataArray Name="offsets" format="ascii" type="Int32">0</DataArray>
<DataArray Name="types" format="ascii" type="UInt8">1</DataArray>
</Cells>
<PointData>
<DataArray Name="Points" NumberOfComponents="3" format="ascii" type="Float32">1 1 2 4.0429378864401606 1 2 1.5999999999999999 6.4874183637815435 2 4.8404456929050896 11.206183235143582 2 3.1171208869925859 15.379130423816756 2 6.4093332440515756 9.8196459080956426 2 3.4336718595873501 3.0133242012719172 2 7.9246852586402881 17.671797705859991 2 1.5999999999999999 10.258354283681934 2 1.5999999999999999 2.3558734034907554 2 5.4624301103469115 13.823303895828461 2 1 15.235182063500039 2 3.2794173038604102 5.3354293084057804 2 8.4 14.625215631616191 2 1 8.296654164804977 2 1.5999999999999999 4.451104294310146 2 3.1096900100245803 10.965260423672312 2 3.5125917336587791 12.840557763011697 2 5.2795906578252669 2.0283507433425196 2 6.5278714162756151 15.739918836787009 2 1.5999999999999999 12.893927886462118 2 2.711056853816638 1 2 5.0589856776777866 16.535179627857865 2 7.3989228181052873 12.935630590719745 2 </DataArray>
<DataArray Name="forces" NumberOfComponents="3" format="ascii" type="Float32">-0.74052627523025993 -1.0209938293956233 0.0 -0.019707522400086885 -1.109244618767955 0.0 -1.3166488208237805 0.16024316611365363 0.0 -0.011858231321820956 0.27227601486921377 0.0 0.0084393861746303034 0.34975869133142223 0.0 0.029414780370517368 0.13981648328247526 0.0 0.02104530391477949 0.20318951594512014 0.0 0.10769337545763427 0.29187292188629038 0.0 -1.1189018915428435 0.20003358529844095 0.0 -1.266041699322928 0.14927012636147685 0.0 0.0065348337691873981 0.33241283617960715 0.0 -0.52312732816667973 0.14548200096372699 0.0 0.010235776004515085 0.090432489044668996 0.0 0.85638667003701818 0.25687425130887953 0.0 -0.7694259628129323 0.053505346043696278 0.0 -1.3068319208537917 0.15054687671535322 0.0 -0.018247999493189046 0.2284915144125183 0.0 0.025191645250482675 0.22717045550205772 0.0 -0.035874593779874731 0.028269712258699176 0.0 -5.3809850504848988e-05 0.24048174419087692 0.0 -0.88506712550632094 0.27924175384466987 0.0 0.0019125179169509066 -1.0911164670886095 0.0 0.002726416439401913 0.33204383991246122 0.0 -0.027131782665261756 0.11881177013767247 0.0 </DataArray>
<DataArray Name="radii" format="ascii" type="Float32">1 1 1.5999999999999999 1.5999999999999999 1.5999999999999999 1 1.5999999999999999 1.5999999999999999 1.5999999999999999 1.5999999999999999 1.5999999999999999 1 1 1.5999999999999999 1 1.5999999999999999 1 1 1.5999999999999999 1 1.5999999999999999 1 1 1 </DataArray>
</PointData>
<CellData/>
</Piece>
</UnstructuredGrid>
</VTKFile>
