<?xml version="1.0" ?>
<VTKFile byte_order="LittleEndian" type="UnstructuredGrid" version="0.1">
<UnstructuredGrid>
<Piece NumberOfCells="0" NumberOfPoints="27">
<Points>
<DataArray NumberOfComponents="3" format="ascii" type="Float32">6.6133013513911552 1 2 4.6134917020681314 9.0948874155827664 2 7.7995595725321252 1 2 9.0 1 2 8.6 7.4710441869821151 2 2.7790398161577556 8.8433939812401618 2 9.0 2.2971131519960717 2 7.7346807636035493 2.4332165924464078 2 8.6 10.931672457855131 2 3.8486555287129516 7.5120981741923547 2 8.6 5.4324280463142403 2 7.3987822626084334 6.2092389785601556 2 6.6245258874236672 12.767652012729748 2 6.2115436256909176 9.3367757951914552 2 9.0 9.3484241824540284 2 4.8804140718200468 5.7592853110756028 2 7.2306678410563494 9.9181292982871234 2 6.3073586630650613 4.1776173074748799 2 5.2735962134109711 7.2766999943054822 2 3.3773725097850145 10.293013517355902 2 7.8963110121217177 8.7844712459266603 2 9.0 3.7589058105551603 2 8.6 12.652330771046886 2 7.7332706004750777 4.0593548106047299 2 6.6115828276109756 7.7234123472501199 2 5.033205483252428 4.2553806895951745 2 6.2904760985733068 5.4044747769443866 2 </DataArray>
</Points>
<Cells>
<DataArray Name="connectivity" format="ascii" type="Int32">0</DataArray>
<DataArray Name="offsets" format="ascii" type="Int32">0</DataArray>
<DataArray Name="types" format="ascii" type="UInt8">1</DataArray>
</Cells>
<PointData>
<DataArray Name="Points" NumberOfComponents="3" format="ascii" type="Float32">6.6133013513911552 1 2 4.6134917020681314 9.0948874155827664 2 7.7995595725321252 1 2 9.0 1 2 8.6 7.4710441869821151 2 2.7790398161577556 8.8433939812401618 2 9.0 2.2971131519960717 2 7.7346807636035493 2.4332165924464078 2 8.6 10.931672457855131 2 3.8486555287129516 7.5120981741923547 2 8.6 5.4324280463142403 2 7.3987822626084334 6.2092389785601556 2 6.6245258874236672 12.767652012729748 2 6.2115436256909176 9.3367757951914552 2 9.0 9.3484241824540284 2 4.8804140718200468 5.7592853110756028 2 7.2306678410563494 9.9181292982871234 2 6.3073586630650613 4.1776173074748799 2 5.2735962134109711 7.2766999943054822 2 3.3773725097850145 10.293013517355902 2 7.8963110121217177 8.7844712459266603 2 9.0 3.7589058105551603 2 8.6 12.652330771046886 2 7.7332706004750777 4.0593548106047299 2 6.6115828276109756 7.7234123472501199 2 5.033205483252428 4.2553806895951745 2 6.2904760985733068 5.4044747769443866 2 </DataArray>
<DataArray Name="forces" NumberOfComponents="3" format="ascii" type="Float32">-0.0062295727404577672 -1.4708376016555569 0.0 0.0038434479889073447 0.28707452227551722 0.0 -0.0047409864591405615 -1.2323736992765937 0.0 1.1220677678842521 -1.0669967810366823 0.0 1.8480664707468359 0.15532326505861077 0.0 -0.015560338427747678 0.079530975095630452 0.0 1.4116041501996868 0.027899004749079331 0.0 0.01067568472096625 0.10796796355248754 0.0 0.95568380016020904 0.12050116905034702 0.0 0.043155815931031016 0.19110921957440785 0.0 1.7107659387248371 0.15178865809026482 0.0 0.02211343444820224 0.16403015574899571 0.0 0.060177299164232437 0.1814819495500874 0.0 0.014404843367969739 0.13866075823411195 0.0 1.0994397207033106 0.027909854698739633 0.0 0.020374668471799695 0.23240414004199444 0.0 -0.022574318199997313 0.14149860527123118 0.0 0.14081543985446765 0.11248756151214045 0.0 0.027078908949764308 0.26158855855444296 0.0 -0.0012239689222846711 0.2359942450983615 0.0 -0.021624965507673455 0.13040697001066931 0.0 1.6156451692233524 0.035297043588419064 0.0 0.65645337027978812 0.1604504008660016 0.0 0.074420149048945228 0.13448849961398324 0.0 0.045219112803413876 0.19253847037495639 0.0 0.12761867926263218 0.15297152242597242 0.0 0.010077782277371689 0.13182273565516628 0.0 </DataArray>
<DataArray Name="radii" format="ascii" type="Float32">1 1.4 1 1 1.4 1 1 1.4 1.4 1 1.4 1.4 1 1 1 1.4 1 1 1.4 1.4 1 1 1.4 1.4 1.4 1 1 </DataArray>
</PointData>
<CellData/>
</Piece>
</UnstructuredGrid>
</VTKFile>
