<?xml version="1.0" ?>
<VTKFile byte_order="LittleEndian" type="UnstructuredGrid" version="0.1">
<UnstructuredGrid>
<Piece NumberOfCells="0" NumberOfPoints="13">
<Points>
<DataArray NumberOfComponents="3" format="ascii" type="Float32">5.3083686180034872 1 2 4.9702321521674193 7.2289680139312784 2 7.2163636728073159 1 2 9.0 1 2 7.7218144133154185 7.0679650271239689 2 2.9702705735255837 8.2228835826081745 2 9.0 2.6945276247739596 2 6.8316953692679601 2.8139116315941748 2 8.6 9.4838148758079797 2 2.7976983776267978 6.552209892599052 2 8.6 4.7782712180676805 2 5.9806994699216487 5.0379651899422857 2 6.9314472257550941 10.835130687628913 2 </DataArray>
</Points>
<Cells>
<DataArray Name="connectivity" format="ascii" type="Int32">0</DataArray>
<DataArray Name="offsets" format="ascii" type="Int32">0</DataArray>
<DataArray Name="types" format="ascii" type="UInt8">1</DataArray>
</Cells>
<PointData>
<DataArray Name="Points" NumberOfComponents="3" format="ascii" type="Float32">5.3083686180034872 1 2 4.9702321521674193 7.2289680139312784 2 7.2163636728073159 1 2 9.0 1 2 7.7218144133154185 7.0679650271239689 2 2.9702705735255837 8.2228835826081745 2 9.0 2.6945276247739596 2 6.8316953692679601 2.8139116315941748 2 8.6 9.4838148758079797 2 2.7976983776267978 6.552209892599052 2 8.6 4.7782712180676805 2 5.9806994699216487 5.0379651899422857 2 6.9314472257550941 10.835130687628913 2 </DataArray>
<DataArray Name="forces" NumberOfComponents="3" format="ascii" type="Float32">-0.0199503853612631 -0.19427581939223854 0.0 -0.0021552044665418268 0.088944015518169606 0.0 -0.010906416482798276 -0.53685648041002187 0.0 0.21865228131389358 -0.3070603171790145 0.0 0.010035030726640207 0.071729309928603019 0.0 -0.0058596788038365807 0.08278722932755761 0.0 0.28389837585902233 0.019544439549429804 0.0 -0.014003900015709392 0.047041001277453587 0.0 0.47655230029297835 0.10845442968903038 0.0 0.0048640225004771762 0.069440849615781772 0.0 0.34915268232587732 0.048878334203033447 0.0 -0.0086703080011376332 0.065652562413873031 0.0 -0.064269989925998194 0.042816302570989909 0.0 </DataArray>
<DataArray Name="radii" format="ascii" type="Float32">1 1.4 1 1 1.4 1 1 1.4 1.4 1 1.4 1.4 1 </DataArray>
</PointData>
<CellData/>
</Piece>
</UnstructuredGrid>
</VTKFile>
