<?xml version="1.0" ?>
<VTKFile byte_order="LittleEndian" type="UnstructuredGrid" version="0.1">
<UnstructuredGrid>
<Piece NumberOfCells="0" NumberOfPoints="13">
<Points>
<DataArray NumberOfComponents="3" format="ascii" type="Float32">5.2995904074876536 1 2 5.1538727950972261 7.1247627929269344 2 7.1691790943107545 1 2 9.0 1 2 7.5586528100484704 6.9754637803024684 2 3.1636301857870679 8.0213358759131648 2 9.0 2.9022503843415799 2 6.8667112656467433 2.9593681061374233 2 8.8 8.8715686801990081 2 2.784478555408092 6.1357401506204479 2 8.8 5.0076991621954914 2 6.3523122327197958 5.0921139975519472 2 7.6531465352421941 10.654310163260273 2 </DataArray>
</Points>
<Cells>
<DataArray Name="connectivity" format="ascii" type="Int32">0</DataArray>
<DataArray Name="offsets" format="ascii" type="Int32">0</DataArray>
<DataArray Name="types" format="ascii" type="UInt8">1</DataArray>
</Cells>
<PointData>
<DataArray Name="Points" NumberOfComponents="3" format="ascii" type="Float32">5.2995904074876536 1 2 5.1538727950972261 7.1247627929269344 2 7.1691790943107545 1 2 9.0 1 2 7.5586528100484704 6.9754637803024684 2 3.1636301857870679 8.0213358759131648 2 9.0 2.9022503843415799 2 6.8667112656467433 2.9593681061374233 2 8.8 8.8715686801990081 2 2.784478555408092 6.1357401506204479 2 8.8 5.0076991621954914 2 6.3523122327197958 5.0921139975519472 2 7.6531465352421941 10.654310163260273 2 </DataArray>
<DataArray Name="forces" NumberOfComponents="3" format="ascii" type="Float32">-0.0088217034714002801 -0.10360545670824281 0.0 -0.0072829357321685731 0.031500613090875242 0.0 -0.0049457190235195694 -0.22076002477655526 0.0 0.17170973328596606 -0.10157017330982931 0.0 0.0035714661045305185 0.034745393171330949 0.0 -0.0095249146396728379 0.021899805702953148 0.0 0.075244413283731937 0.012378435883062963 0.0 -0.0018251057695675768 0.020829692604263039 0.0 0.19543360676749405 0.04057902729942893 0.0 0.00093599125013101026 0.023537402209214284 0.0 0.033538918409710974 0.021448754787543198 0.0 -0.0037014782222401371 0.023842589267292637 0.0 -0.024860232149209592 0.02911379570224603 0.0 </DataArray>
<DataArray Name="radii" format="ascii" type="Float32">1 1.2 1 1 1.2 1 1 1.2 1.2 1 1.2 1.2 1 </DataArray>
</PointData>
<CellData/>
</Piece>
</UnstructuredGrid>
</VTKFile>
