<?xml version="1.0" ?>
<VTKFile byte_order="LittleEndian" type="UnstructuredGrid" version="0.1">
<UnstructuredGrid>
<Piece NumberOfCells="0" NumberOfPoints="63">
<Points>
<DataArray NumberOfComponents="3" format="ascii" type="Float32">1.0 1.0 2.0 4.0 1.0 2.0 7.0 1.0 2.0 10.0 1.0 2.0 12.59468909535963 2.9930836490802566 2.0 16.497915348570686 1.6045526028719819 2.0 18.368562038773383 1 2.0 22.957602088432463 1.0 2.0 25.0 1.0 2.0 28.339504690171488 2.7193027168559385 2.0 31.0 1.0 2.0 32.8652307854193 1.7061857232533559 2.0 36.688348679864831 1 2.0 38.509555244454553 1.6251853431870904 2.0 43.517086738162462 1 2.0 46.0 1.0 2.0 48.416279059710128 2.2274306428623909 2.0 51.607772781243604 2.6426923009903254 2.0 55.050335613390978 1.0 2.0 58.0 1.0 2.0 60.357236073306098 1.0364630242838537 2.0 64.999336186071289 1.528713964352759 2.0 67.539090038726712 1.6657713016767373 2.0 70.0 1.0 2.0 72.325875090850943 1.7229443783086817 2.0 76.174894577291909 1.4611627903012783 2.0 79.0 1.0 2.0 82.0 1.0 2.0 84.479312715376153 1.6412858818753633 2.0 88.329032925542194 1.1923258782873332 2.0 91.152550021235129 1.2853387233990858 2.0 93.998985396877359 1 2.0 95.94205813664756 1.4793073674499591 2.0 99.484144820363838 2.909206198113325 2.0 12.735049756306472 1 2.0 14.562241064751309 1.8093815704756153 2.0 20.986411783774766 1 2.0 27.310747868644263 1.0 2.0 34.475805835288114 3.1485521910201868 2.0 41.925071774831302 2.1848737724011764 2.0 50.16542185170173 1.2562923886733075 2.0 53.067633100585248 1.27337874470974 2.0 61.459706184386739 2.7301485950624991 2.0 63.003521189116711 1.4560519253354505 2.0 66.174892915343591 3.145291756684248 2.0 74.157371756309587 2.5286580059654091 2.0 75.925490702271077 3.4645548438307738 2.0 85.412884633677649 3.6170362553267053 2.0 89.11895536446022 3.0332907363276576 2.0 91.106274800916665 3.2874771202325435 2.0 97.489961447737386 2.7466159489695494 2.0 100.08324832351592 1 2.0 15.727621404640022 3.4229347672322956 2.0 18.189536288741234 3.7867978684105732 2.0 34.756418625822128 1.1674452171723466 2.0 41.267497633587681 4.0589610845374642 2.0 59.671707238228784 3.6328473231871152 2.0 63.00567021813832 3.9939313617624088 2.0 86.46132654096408 1.9120137951968375 2.0 20.557102201850597 4.1948037972573262 2.0 39.405396348068187 3.3729760131945117 2.0 19.668635845766929 2.4873853983842698 2.0 40.356201633295761 1 2.0 </DataArray>
</Points>
<Cells>
<DataArray Name="connectivity" format="ascii" type="Int32">0</DataArray>
<DataArray Name="offsets" format="ascii" type="Int32">0</DataArray>
<DataArray Name="types" format="ascii" type="UInt8">1</DataArray>
</Cells>
<PointData>
<DataArray Name="Points" NumberOfComponents="3" format="ascii" type="Float32">1.0 1.0 2.0 4.0 1.0 2.0 7.0 1.0 2.0 10.0 1.0 2.0 12.59468909535963 2.9930836490802566 2.0 16.497915348570686 1.6045526028719819 2.0 18.368562038773383 1 2.0 22.957602088432463 1.0 2.0 25.0 1.0 2.0 28.339504690171488 2.7193027168559385 2.0 31.0 1.0 2.0 32.8652307854193 1.7061857232533559 2.0 36.688348679864831 1 2.0 38.509555244454553 1.6251853431870904 2.0 43.517086738162462 1 2.0 46.0 1.0 2.0 48.416279059710128 2.2274306428623909 2.0 51.607772781243604 2.6426923009903254 2.0 55.050335613390978 1.0 2.0 58.0 1.0 2.0 60.357236073306098 1.0364630242838537 2.0 64.999336186071289 1.528713964352759 2.0 67.539090038726712 1.6657713016767373 2.0 70.0 1.0 2.0 72.325875090850943 1.7229443783086817 2.0 76.174894577291909 1.4611627903012783 2.0 79.0 1.0 2.0 82.0 1.0 2.0 84.479312715376153 1.6412858818753633 2.0 88.329032925542194 1.1923258782873332 2.0 91.152550021235129 1.2853387233990858 2.0 93.998985396877359 1 2.0 95.94205813664756 1.4793073674499591 2.0 99.484144820363838 2.909206198113325 2.0 12.735049756306472 1 2.0 14.562241064751309 1.8093815704756153 2.0 20.986411783774766 1 2.0 27.310747868644263 1.0 2.0 34.475805835288114 3.1485521910201868 2.0 41.925071774831302 2.1848737724011764 2.0 50.16542185170173 1.2562923886733075 2.0 53.067633100585248 1.27337874470974 2.0 61.459706184386739 2.7301485950624991 2.0 63.003521189116711 1.4560519253354505 2.0 66.174892915343591 3.145291756684248 2.0 74.157371756309587 2.5286580059654091 2.0 75.925490702271077 3.4645548438307738 2.0 85.412884633677649 3.6170362553267053 2.0 89.11895536446022 3.0332907363276576 2.0 91.106274800916665 3.2874771202325435 2.0 97.489961447737386 2.7466159489695494 2.0 100.08324832351592 1 2.0 15.727621404640022 3.4229347672322956 2.0 18.189536288741234 3.7867978684105732 2.0 34.756418625822128 1.1674452171723466 2.0 41.267497633587681 4.0589610845374642 2.0 59.671707238228784 3.6328473231871152 2.0 63.00567021813832 3.9939313617624088 2.0 86.46132654096408 1.9120137951968375 2.0 20.557102201850597 4.1948037972573262 2.0 39.405396348068187 3.3729760131945117 2.0 19.668635845766929 2.4873853983842698 2.0 40.356201633295761 1 2.0 </DataArray>
<DataArray Name="forces" NumberOfComponents="3" format="ascii" type="Float32">0.0 0.0 0.0 0.0 0.0 0.0 0.0 0.0 0.0 0.0 0.0 0.0 -0.0008759318459659964 0.0083901673795794551 0.0 -0.012272178943497927 0.015811929064588812 0.0 0.018156190511752948 -0.090304331906946506 0.0 0.042075468480977207 0.0 0.0 0.0 0.0 0.0 0.0 0.0 0.0 0.0 0.0 0.0 -0.0521340044492178 0.014098171674914034 0.0 -0.018501121188270381 -0.046398601794198302 0.0 0.0051697277772607825 0.028055604508504393 0.0 0.036176481309895203 -0.02570814285075863 0.0 0.0 0.0 0.0 0.0 0.0 0.0 0.0 0.0 0.0 0.0 0.0 0.0 0.0 0.0 0.0 0.0 0.0 0.0 0.022079115623076892 -0.010032487986005589 0.0 0.0 0.0 0.0 0.0 0.0 0.0 0.0 0.0 0.0 0.0 0.0 0.0 0.0 0.0 0.0 0.0 0.0 0.0 0.0 0.0 0.0 0.0 0.0 0.0 0.0 0.0 0.0 -0.0006929426203329676 -0.00017102088597564232 0.0 0.0006929426203329676 0.00017102088597564232 0.0 -0.0005014778932751386 0.0016000566795440379 0.0 -0.046248542713381226 -0.028739120795865998 0.0 -0.020167652346971949 0.025178852988944889 0.0 0.03301535483229702 -0.081229135712512099 0.0 0.0 0.0 0.0 -0.00031263402478949506 0.0017898368560990798 0.0 0.037602858545887033 0.035551160605565124 0.0 0.0 0.0 0.0 0.0 0.0 0.0 -0.0039141377597310296 0.011599384988741607 0.0 0.0039402729370751691 -0.027803152772222707 0.0 0.0081039352306714746 0.010747381016911511 0.0 0.0 0.0 0.0 0.0 0.0 0.0 0.0 0.0 0.0 0.0 0.0 0.0 0.0 0.0 0.0 0.0 0.0 0.0 0.0005014778932751386 -0.0016000566795440379 0.0 -8.1709633117721349e-05 0.0047162696143997962 0.0 -0.04159497504319077 0.039705925519694582 0.0 -0.043481627695914821 -0.0069017526212121275 0.0 0.0024489655584518828 0.040590896300794925 0.0 -0.030209186031092506 0.015488874752575179 0.0 0.0 0.0 0.0 0.0 0.0 0.0 0.019041190489871518 0.038172530023564251 0.0 0.0056655699497033894 0.033150259954445323 0.0 0.0089527862112268944 0.06829691382455283 0.0 0.027365784216994204 -0.074227432634153809 0.0 </DataArray>
<DataArray Name="radii" format="ascii" type="Float32">1 1 1 1 1 1 1 1 1 1 1 1 1 1 1 1 1 1 1 1 1 1 1 1 1 1 1 1 1 1 1 1 1 1 1 1 1 1 1 1 1 1 1 1 1 1 1 1 1 1 1 1 1 1 1 1 1 1 1 1 1 1 1 </DataArray>
</PointData>
<CellData/>
</Piece>
</UnstructuredGrid>
</VTKFile>
