<?xml version="1.0" ?>
<VTKFile byte_order="LittleEndian" type="UnstructuredGrid" version="0.1">
<UnstructuredGrid>
<Piece NumberOfCells="0" NumberOfPoints="63">
<Points>
<DataArray NumberOfComponents="3" format="ascii" type="Float32">1.0 1.0 2.0 4.0 1.0 2.0 7.0 1.0 2.0 10.0 1.0 2.0 12.752638804301684 2.4204202983493399 2.0 16.742526953929271 1.8200331268414487 2.0 18.279744222797387 1.6055460881725507 2.0 22.113638975566634 1 2.0 25.0 1.0 2.0 28.167248495233753 2.3987802915646323 2.0 31.0 1.0 2.0 33.156611545783882 1.6578915567168679 2.0 37.0 1.0 2.0 38.987163275556355 1.5748741122911365 2.0 43.021798647959912 1 2.0 46.0 1.0 2.0 48.59732898730703 2.1400432307141166 2.0 51.654939447726733 2.3555301366840453 2.0 55.0 1.0 2.0 58.0 1.0 2.0 60.585997710911563 1.3362244105994106 2.0 64.472099775943406 1.8525241307757723 2.0 67.389128217313299 1.7798161485398396 2.0 70.0 1.0 2.0 72.562893854367729 1.8281707929314697 2.0 76.149131971246661 1.590305293646197 2.0 79.0 1.0 2.0 82.0 1.0 2.0 84.647980874344242 1.7138946178311076 2.0 88.003900730367889 1.6547464560357412 2.0 91.133419019291949 1.4698250746484187 2.0 94.0 1.0 2.0 96.361294448960805 1.7562727918414698 2.0 99.150112361965341 2.354092093670332 2.0 13.289696202359931 1 2.0 14.638338145594146 1.8398080119902549 2.0 20.570565978562829 1.504584298896408 2.0 27.483004063581998 1 2.0 34.496807388887852 2.9609224951893287 2.0 41.377337250678352 1.7847298651633139 2.0 50.144514106869067 1.4638744610457337 2.0 52.910659864728878 1.432733357941274 2.0 61.605794031189149 2.5909971816055521 2.0 63.038599327609496 1.9903218049457445 2.0 65.997067832864047 2.7362929866339645 2.0 74.085663149879096 2.5061791905925337 2.0 75.785943151230043 3.2526647412359431 2.0 85.632136511387799 3.2088159139950854 2.0 89.10969623034093 2.7815451684708918 2.0 90.926755323890433 3.0707876538609784 2.0 97.637488386469741 2.4601698619783638 2.0 99.849502927746173 1 2.0 15.677406800881915 2.6154838139769314 2.0 19.03733030926778 3.1323455377731779 2.0 34.8166453910681 1.3667578280377248 2.0 40.997888150895811 3.4549184242769955 2.0 60.372571198787973 3.2467502333428029 2.0 62.749901948699268 3.656292355901988 2.0 86.606448312548864 2.0691535058033028 2.0 20.123254167652963 3.7870465277650784 2.0 39.602361896328823 3.0451797504726494 2.0 19.620226356052939 1.9952040005427834 2.0 40.309999751635239 1.2746279027409586 2.0 </DataArray>
</Points>
<Cells>
<DataArray Name="connectivity" format="ascii" type="Int32">0</DataArray>
<DataArray Name="offsets" format="ascii" type="Int32">0</DataArray>
<DataArray Name="types" format="ascii" type="UInt8">1</DataArray>
</Cells>
<PointData>
<DataArray Name="Points" NumberOfComponents="3" format="ascii" type="Float32">1.0 1.0 2.0 4.0 1.0 2.0 7.0 1.0 2.0 10.0 1.0 2.0 12.752638804301684 2.4204202983493399 2.0 16.742526953929271 1.8200331268414487 2.0 18.279744222797387 1.6055460881725507 2.0 22.113638975566634 1 2.0 25.0 1.0 2.0 28.167248495233753 2.3987802915646323 2.0 31.0 1.0 2.0 33.156611545783882 1.6578915567168679 2.0 37.0 1.0 2.0 38.987163275556355 1.5748741122911365 2.0 43.021798647959912 1 2.0 46.0 1.0 2.0 48.59732898730703 2.1400432307141166 2.0 51.654939447726733 2.3555301366840453 2.0 55.0 1.0 2.0 58.0 1.0 2.0 60.585997710911563 1.3362244105994106 2.0 64.472099775943406 1.8525241307757723 2.0 67.389128217313299 1.7798161485398396 2.0 70.0 1.0 2.0 72.562893854367729 1.8281707929314697 2.0 76.149131971246661 1.590305293646197 2.0 79.0 1.0 2.0 82.0 1.0 2.0 84.647980874344242 1.7138946178311076 2.0 88.003900730367889 1.6547464560357412 2.0 91.133419019291949 1.4698250746484187 2.0 94.0 1.0 2.0 96.361294448960805 1.7562727918414698 2.0 99.150112361965341 2.354092093670332 2.0 13.289696202359931 1 2.0 14.638338145594146 1.8398080119902549 2.0 20.570565978562829 1.504584298896408 2.0 27.483004063581998 1 2.0 34.496807388887852 2.9609224951893287 2.0 41.377337250678352 1.7847298651633139 2.0 50.144514106869067 1.4638744610457337 2.0 52.910659864728878 1.432733357941274 2.0 61.605794031189149 2.5909971816055521 2.0 63.038599327609496 1.9903218049457445 2.0 65.997067832864047 2.7362929866339645 2.0 74.085663149879096 2.5061791905925337 2.0 75.785943151230043 3.2526647412359431 2.0 85.632136511387799 3.2088159139950854 2.0 89.10969623034093 2.7815451684708918 2.0 90.926755323890433 3.0707876538609784 2.0 97.637488386469741 2.4601698619783638 2.0 99.849502927746173 1 2.0 15.677406800881915 2.6154838139769314 2.0 19.03733030926778 3.1323455377731779 2.0 34.8166453910681 1.3667578280377248 2.0 40.997888150895811 3.4549184242769955 2.0 60.372571198787973 3.2467502333428029 2.0 62.749901948699268 3.656292355901988 2.0 86.606448312548864 2.0691535058033028 2.0 20.123254167652963 3.7870465277650784 2.0 39.602361896328823 3.0451797504726494 2.0 19.620226356052939 1.9952040005427834 2.0 40.309999751635239 1.2746279027409586 2.0 </DataArray>
<DataArray Name="forces" NumberOfComponents="3" format="ascii" type="Float32">0.0 0.0 0.0 0.0 0.0 0.0 0.0 0.0 0.0 0.0 0.0 0.0 -0.23523521256666366 0.51663107785837981 0.0 0.30157924744179238 -0.3739631642780889 0.0 -0.48666207484255652 -0.57179661874170307 0.0 0.32126350635762319 -0.11204037307459939 0.0 0.0 0.0 0.0 0.21892388842949825 0.46490140326223822 0.0 0.0 0.0 0.0 -0.64188469108737356 -0.10864347759094943 0.0 0.0 0.0 0.0 -0.93745479464549508 -0.32273947458000846 0.0 0.0918026382538603 -0.041081457136068547 0.0 0.0 0.0 0.0 -0.35246082807685686 0.14851992069233846 0.0 -0.23597074010330668 0.43838689122791974 0.0 0.0 0.0 0.0 0.0 0.0 0.0 -0.26106959728972001 -0.5551042438155509 0.0 0.429381955495999 -0.17446040994668821 0.0 0.32481767243786602 -0.21725305945145101 0.0 0.0 0.0 0.0 -0.37837383683931303 -0.1683482902910016 0.0 0.087314879904674181 -0.38294852227993492 0.0 0.0 0.0 0.0 0.0 0.0 0.0 -0.18342002666004437 -0.24236847919481008 0.0 0.21255143345149535 -0.49459564900774577 0.0 0.069814217604050266 -0.49858757818196348 0.0 0.0 0.0 0.0 -0.5695913525656624 -0.29837740208865526 0.0 0.25870132018794401 0.41763457594539144 0.0 -0.12272189620647608 -0.70743250671839863 0.0 -0.32199646627767992 -0.24933135886581839 0.0 0.5278697098746854 -0.35958283693994614 0.0 -0.21892388842949825 -0.46490140326223822 0.0 0.089281693489477357 0.70315725664630102 0.0 0.85673352148414961 0.076101609801500492 0.0 0.13237336496986338 -0.26324611345006732 0.0 0.45605820321030016 -0.32366069847019086 0.0 0.11552947599224539 -0.16117026870747392 0.0 -0.10669192388760072 -0.51478159527622513 0.0 -0.14168779939862428 0.31239965392050151 0.0 0.25429507640929483 0.11733202263602041 0.0 0.036763880525344031 0.43396478993491611 0.0 -0.23066176471369029 0.66912643315471454 0.0 0.20863375632541978 0.31079782500467773 0.0 0.077219493527581923 0.5198388593507387 0.0 0.065657909581223972 0.33741828253475148 0.0 0.24523212279649445 -0.45667545639148766 0.0 0.02125653691406737 0.85604891363117752 0.0 -0.91550441759522072 0.61202902715756058 0.0 0.55260299759789622 -0.59451377905535152 0.0 0.56520869500490678 0.54418709175317881 0.0 -0.66362830418610319 0.53192198239982813 0.0 0.30334852083593772 0.77844794087705949 0.0 -0.15413710953481269 -0.26421141112561164 0.0 0.81969193418350372 0.82491116756817284 0.0 -0.5353462175040079 0.50411326833330761 0.0 0.090459132716924781 -0.43547332759673624 0.0 -0.040943842593413687 -0.76058103817190981 0.0 </DataArray>
<DataArray Name="radii" format="ascii" type="Float32">1 1 1 1 1 1 1 1 1 1 1 1 1 1 1 1 1 1 1 1 1 1 1 1 1 1 1 1 1 1 1 1 1 1 1 1 1 1 1 1 1 1 1 1 1 1 1 1 1 1 1 1 1 1 1 1 1 1 1 1 1 1 1 </DataArray>
</PointData>
<CellData/>
</Piece>
</UnstructuredGrid>
</VTKFile>
