<?xml version="1.0" ?>
<VTKFile byte_order="LittleEndian" type="UnstructuredGrid" version="0.1">
<UnstructuredGrid>
<Piece NumberOfCells="0" NumberOfPoints="52">
<Points>
<DataArray NumberOfComponents="3" format="ascii" type="Float32">1.7784246112745032 1.9101472173652936 2.0 4.0394124406349894 1 2.0 7.0 1.0 2.0 9.8640643790399114 2.1971643751446166 2.0 13.0 1.0 2.0 16.0 1.0 2.0 19.0 1.0 2.0 22.0 1.0 2.0 24.831158651783113 1.9535738671202865 2.0 28.0 1.0 2.0 31.0 1.0 2.0 34.0 1.0 2.0 37.0 1.0 2.0 39.941123888673651 1 2.0 43.239760914096621 2.0430243089525217 2.0 45.670249787016118 1.7633755947375982 2.0 49.021629364466129 1 2.0 52.0 1.0 2.0 54.899479574485738 1 2.0 58.206020653862801 2.0160031954253954 2.0 60.756227093901991 1.8394251141966358 2.0 64.089702037499876 1.7180251166815015 2.0 66.913952455108358 1.8844149628003253 2.0 70.0 1.0 2.0 73.0 1.0 2.0 76.0 1.0 2.0 79.0 1.0 2.0 82.0 1.0 2.0 85.0 1.0 2.0 87.968584774947004 1.0 2.0 91.278915155205894 2.0580053820375892 2.0 94.0 1.0 2.0 97.024818226525312 2.2212794511916907 2.0 98.810992598617688 2.1506453409548039 2.0 2.8125606950734592 2.5072811359677125 2.0 10.492307748295037 1.2859447076057871 2.0 26.129859465293809 2.3106763018958483 2.0 42.120920413440274 2.0834274978549558 2.0 46.306448391378872 2.2051189058234333 2.0 56.954352815884327 2.0185176641903406 2.0 61.742118389999284 2.4264743447622497 2.0 63.894159469020245 2.6434765600908032 2.0 67.930722526754252 2.7482556638457654 2.0 89.796507877491749 2.110654741579169 2.0 96.494796197170913 1.3371021294750951 2.0 100.16827856229422 2.0406038885827757 2.0 41.546032608238171 1.14597237727575 2.0 47.427931812094755 2.6266165795071137 2.0 55.90143956681576 2.0514357171602513 2.0 62.086177136126082 3.1317511427169213 2.0 90.305861531631663 1.1633759957336389 2.0 99.126580046377612 1.3388341700754012 2.0 </DataArray>
</Points>
<Cells>
<DataArray Name="connectivity" format="ascii" type="Int32">0</DataArray>
<DataArray Name="offsets" format="ascii" type="Int32">0</DataArray>
<DataArray Name="types" format="ascii" type="UInt8">1</DataArray>
</Cells>
<PointData>
<DataArray Name="Points" NumberOfComponents="3" format="ascii" type="Float32">1.7784246112745032 1.9101472173652936 2.0 4.0394124406349894 1 2.0 7.0 1.0 2.0 9.8640643790399114 2.1971643751446166 2.0 13.0 1.0 2.0 16.0 1.0 2.0 19.0 1.0 2.0 22.0 1.0 2.0 24.831158651783113 1.9535738671202865 2.0 28.0 1.0 2.0 31.0 1.0 2.0 34.0 1.0 2.0 37.0 1.0 2.0 39.941123888673651 1 2.0 43.239760914096621 2.0430243089525217 2.0 45.670249787016118 1.7633755947375982 2.0 49.021629364466129 1 2.0 52.0 1.0 2.0 54.899479574485738 1 2.0 58.206020653862801 2.0160031954253954 2.0 60.756227093901991 1.8394251141966358 2.0 64.089702037499876 1.7180251166815015 2.0 66.913952455108358 1.8844149628003253 2.0 70.0 1.0 2.0 73.0 1.0 2.0 76.0 1.0 2.0 79.0 1.0 2.0 82.0 1.0 2.0 85.0 1.0 2.0 87.968584774947004 1.0 2.0 91.278915155205894 2.0580053820375892 2.0 94.0 1.0 2.0 97.024818226525312 2.2212794511916907 2.0 98.810992598617688 2.1506453409548039 2.0 2.8125606950734592 2.5072811359677125 2.0 10.492307748295037 1.2859447076057871 2.0 26.129859465293809 2.3106763018958483 2.0 42.120920413440274 2.0834274978549558 2.0 46.306448391378872 2.2051189058234333 2.0 56.954352815884327 2.0185176641903406 2.0 61.742118389999284 2.4264743447622497 2.0 63.894159469020245 2.6434765600908032 2.0 67.930722526754252 2.7482556638457654 2.0 89.796507877491749 2.110654741579169 2.0 96.494796197170913 1.3371021294750951 2.0 100.16827856229422 2.0406038885827757 2.0 41.546032608238171 1.14597237727575 2.0 47.427931812094755 2.6266165795071137 2.0 55.90143956681576 2.0514357171602513 2.0 62.086177136126082 3.1317511427169213 2.0 90.305861531631663 1.1633759957336389 2.0 99.126580046377612 1.3388341700754012 2.0 </DataArray>
<DataArray Name="forces" NumberOfComponents="3" format="ascii" type="Float32">-0.7602071932224006 -0.43713963649401061 0.0 0.034537232590751109 -0.040943264269196797 0.0 0.0 0.0 0.0 -0.55198503204411387 0.80061269565328441 0.0 0.0 0.0 0.0 0.0 0.0 0.0 0.0 0.0 0.0 0.0 0.0 0.0 -0.6856032020719216 -0.18851961144766624 0.0 0.0 0.0 0.0 0.0 0.0 0.0 0.0 0.0 0.0 0.0 0.0 0.0 -0.38732536262857153 -0.043406752110828256 0.0 1.0731833457604152 0.060077590952416368 0.0 -2.2280056562741133 -1.2708163311741678 0.0 0.52275321418900655 -0.48695613789942577 0.0 0.0 0.0 0.0 -1.1140984127424383 -1.0906957947877578 0.0 1.5930880558483436 0.0020225653993757153 0.0 -0.93456750608359462 -0.64425691952352171 0.0 0.24104622581754923 -1.1200783738798727 0.0 -0.55243951435353233 -0.46934872560899038 0.0 0.0 0.0 0.0 0.0 0.0 0.0 0.0 0.0 0.0 0.0 0.0 0.0 0.0 0.0 0.0 0.0 0.0 0.0 0.0 0.0 0.0 1.1852927060003347 0.494274032370983 0.0 0.0 0.0 0.0 0.39284859299693498 0.90614389032110831 0.0 -1.0569137517290761 1.1954798192991174 0.0 0.72566996063164946 0.47808290076320742 0.0 0.55198503204411387 -0.80061269565328441 0.0 0.6856032020719216 0.18851961144766624 0.0 -0.41328405321129047 0.80201889201372556 0.0 -0.74867930547259487 0.070843981506276577 0.0 1.3138115934404928 0.022538500029423071 0.0 0.15678812812627085 -0.68157501694600131 0.0 -0.14698592503751706 1.0956725446453441 0.0 0.55243951435353233 0.46934872560899038 0.0 -1.104557688472295 0.91661553840431698 0.0 -0.545602758237691 -0.8993205817207377 0.0 1.4557019813851766 0.40906773011334141 0.0 -0.27257392992055318 -0.8186897308553136 0.0 2.4539317475577018 1.6869284875673172 0.0 -1.7928012365463979 1.0661347293589591 0.0 0.68371907717729163 1.3502377657040516 0.0 -0.080735017528039577 -1.4108895707753 0.0 -0.24603406441534453 -1.6113708580128294 0.0 </DataArray>
<DataArray Name="radii" format="ascii" type="Float32">1 1 1 1 1 1 1 1 1 1 1 1 1 1 1 1 1 1 1 1 1 1 1 1 1 1 1 1 1 1 1 1 1 1 1 1 1 1 1 1 1 1 1 1 1 1 1 2 2 1 1 1 </DataArray>
</PointData>
<CellData/>
</Piece>
</UnstructuredGrid>
</VTKFile>
