<?xml version="1.0" ?>
<VTKFile byte_order="LittleEndian" type="UnstructuredGrid" version="0.1">
<UnstructuredGrid>
<Piece NumberOfCells="0" NumberOfPoints="56">
<Points>
<DataArray NumberOfComponents="3" format="ascii" type="Float32">1.6667782817868657 1.845341626086042 2.0 4.0458523291957196 1 2.0 7.0 1.0 2.0 9.7829003806349082 2.3148866389393272 2.0 13.0 1.0 2.0 16.0 1.0 2.0 19.0 1.0 2.0 22.0 1.0 2.0 24.730347408780087 1.9258539027107668 2.0 28.0 1.0 2.0 31.0 1.0 2.0 34.0 1.0 2.0 37.0 1.0 2.0 39.873497947922402 1 2.0 43.38900350100365 2.0358764235209716 2.0 45.494392867468832 1.6385134465149256 2.0 49.03351884645415 1.0 2.0 52.0 1.0 2.0 54.727962872562934 1 2.0 58.41199148111648 2.0280793604106639 2.0 60.621996293247669 1.7616755406147384 2.0 64.123751807316125 1.5521048290543129 2.0 66.832721629526361 1.8154018247526367 2.0 70.0 1.0 2.0 73.0 1.0 2.0 76.0 1.0 2.0 79.0 1.0 2.0 82.0 1.0 2.0 85.0 1.0 2.0 87.968584774947004 1.0 2.0 91.426920711851807 2.1256383062599853 2.0 94.0 1.0 2.0 97.055127042838919 2.3575838756421881 2.0 98.704640708694313 2.324704868405898 2.0 2.9177671360003665 2.5803741163689722 2.0 10.57347174670004 1.1682224438110769 2.0 26.230670708296834 2.3383962663053679 2.0 42.048931121162369 2.2243115659757255 2.0 46.28828347786402 2.2574640037467297 2.0 57.173717676037057 2.1592445874108357 2.0 61.787056836064643 2.3139526622663134 2.0 63.886719706499747 2.8018548185758063 2.0 68.011953352336249 2.8172688018934542 2.0 89.655888904661381 2.241224179819667 2.0 96.415696351572365 1.2023392956091714 2.0 100.35324825391771 2.0959615784559866 2.0 41.536405254360297 1.0165592462484709 2.0 47.362547007850651 2.5363031061785284 2.0 55.581641858186416 2.3128099409935317 2.0 62.148859483419301 3.3295644279369401 2.0 90.298474947816132 1 2.0 99.09675327396242 1.1078753621665225 2.0 48.253105178198432 3.1095993715591757 2.0 56.141321295478434 1.9741605457430957 2.0 48.430123289072995 4.1895530098084626 2.0 57.019145254319135 1.2846497594645114 2.0 </DataArray>
</Points>
<Cells>
<DataArray Name="connectivity" format="ascii" type="Int32">0</DataArray>
<DataArray Name="offsets" format="ascii" type="Int32">0</DataArray>
<DataArray Name="types" format="ascii" type="UInt8">1</DataArray>
</Cells>
<PointData>
<DataArray Name="Points" NumberOfComponents="3" format="ascii" type="Float32">1.6667782817868657 1.845341626086042 2.0 4.0458523291957196 1 2.0 7.0 1.0 2.0 9.7829003806349082 2.3148866389393272 2.0 13.0 1.0 2.0 16.0 1.0 2.0 19.0 1.0 2.0 22.0 1.0 2.0 24.730347408780087 1.9258539027107668 2.0 28.0 1.0 2.0 31.0 1.0 2.0 34.0 1.0 2.0 37.0 1.0 2.0 39.873497947922402 1 2.0 43.38900350100365 2.0358764235209716 2.0 45.494392867468832 1.6385134465149256 2.0 49.03351884645415 1.0 2.0 52.0 1.0 2.0 54.727962872562934 1 2.0 58.41199148111648 2.0280793604106639 2.0 60.621996293247669 1.7616755406147384 2.0 64.123751807316125 1.5521048290543129 2.0 66.832721629526361 1.8154018247526367 2.0 70.0 1.0 2.0 73.0 1.0 2.0 76.0 1.0 2.0 79.0 1.0 2.0 82.0 1.0 2.0 85.0 1.0 2.0 87.968584774947004 1.0 2.0 91.426920711851807 2.1256383062599853 2.0 94.0 1.0 2.0 97.055127042838919 2.3575838756421881 2.0 98.704640708694313 2.324704868405898 2.0 2.9177671360003665 2.5803741163689722 2.0 10.57347174670004 1.1682224438110769 2.0 26.230670708296834 2.3383962663053679 2.0 42.048931121162369 2.2243115659757255 2.0 46.28828347786402 2.2574640037467297 2.0 57.173717676037057 2.1592445874108357 2.0 61.787056836064643 2.3139526622663134 2.0 63.886719706499747 2.8018548185758063 2.0 68.011953352336249 2.8172688018934542 2.0 89.655888904661381 2.241224179819667 2.0 96.415696351572365 1.2023392956091714 2.0 100.35324825391771 2.0959615784559866 2.0 41.536405254360297 1.0165592462484709 2.0 47.362547007850651 2.5363031061785284 2.0 55.581641858186416 2.3128099409935317 2.0 62.148859483419301 3.3295644279369401 2.0 90.298474947816132 1 2.0 99.09675327396242 1.1078753621665225 2.0 48.253105178198432 3.1095993715591757 2.0 56.141321295478434 1.9741605457430957 2.0 48.430123289072995 4.1895530098084626 2.0 57.019145254319135 1.2846497594645114 2.0 </DataArray>
<DataArray Name="forces" NumberOfComponents="3" format="ascii" type="Float32">-0.55175698459752764 -0.32206256662219596 0.0 0.03554600862778054 -0.04754320203799306 0.0 0.0 0.0 0.0 -0.4013976637302219 0.58219706501443724 0.0 0.0 0.0 0.0 0.0 0.0 0.0 0.0 0.0 0.0 0.0 0.0 0.0 -0.49856338049332077 -0.13708946295553628 0.0 0.0 0.0 0.0 0.0 0.0 0.0 0.0 0.0 0.0 0.0 0.0 0.0 -0.36295247082381055 -0.014272120442001046 0.0 0.72860368720991864 -0.074611323067834481 0.0 -0.87290407110821011 -0.65239232993553964 0.0 0.0 0.0 0.0 0.0 0.0 0.0 -0.51607158917642382 -0.51511240337549125 0.0 1.2683581442322918 0.18165401056697975 0.0 -0.67832754413758711 -0.35238205585390026 0.0 0.16382172435287146 -0.82513597030558827 0.0 -0.40172815844767973 -0.34130541771492789 0.0 0.0 0.0 0.0 0.0 0.0 0.0 0.0 0.0 0.0 0.0 0.0 0.0 0.0 0.0 0.0 0.0 0.0 0.0 0.0 0.0 0.0 0.65729005210458846 0.31954176704610932 0.0 0.0 0.0 0.0 0.070139533592329217 0.68451821897426013 0.0 -0.38828817529077242 0.85435861239002397 0.0 0.51621097596974708 0.36960576866018902 0.0 0.4013976637302219 -0.58219706501443724 0.0 0.49856338049332077 0.13708946295553628 0.0 -0.39051107693739229 0.76465497098296042 0.0 0.043881175160520813 0.39523734330921967 0.0 1.1864614982233141 1.4115604298759346 0.0 0.29220913507402885 -0.59761355779035585 0.0 0.0028104051881905345 0.77647150631689976 0.0 0.40172815844767973 0.34130541771492789 0.0 -0.63318509350000984 0.6315105300390369 0.0 -0.38752002781290529 -0.67604914012900719 0.0 0.83591203900380817 0.2582810422328406 0.0 0.024859860551284196 -0.67577152747312486 0.0 -0.054122650390729637 -0.40482555008936161 0.0 -2.1422142377024622 1.4151550783173792 0.0 0.21948627952249627 0.99866007763294462 0.0 -0.024104958604578564 -0.95105229708514627 0.0 -0.13024336949245963 -1.1211087334681176 0.0 0.60504512645272546 -0.43607389354112114 0.0 -0.37494982424334955 -0.077567504631684603 0.0 0.27810041988569345 1.0980544302568027 0.0 0.57841600866662957 -2.4156896107531178 0.0 </DataArray>
<DataArray Name="radii" format="ascii" type="Float32">1 1 1 1 1 1 1 1 1 1 1 1 1 1 1 1 1 1 1 1 1 1 1 1 1 1 1 1 1 1 1 1 1 1 1 1 1 1 1 1 1 1 1 1 1 1 1 1 1 1 1 1 1 1 1 1 </DataArray>
</PointData>
<CellData/>
</Piece>
</UnstructuredGrid>
</VTKFile>
