<?xml version="1.0" ?>
<VTKFile byte_order="LittleEndian" type="UnstructuredGrid" version="0.1">
<UnstructuredGrid>
<Piece NumberOfCells="0" NumberOfPoints="63">
<Points>
<DataArray NumberOfComponents="3" format="ascii" type="Float32">1.0 1.0 2.0 4.0 1.0 2.0 7.0 1.0 2.0 10.0 1.0 2.0 12.815475475456934 2.2778387144085643 2.0 16.607416106222612 1.9219097340498494 2.0 18.456699102742085 1.7698781385276741 2.0 22.039634168506122 1 2.0 25.0 1.0 2.0 28.106931183085504 2.2674622293158495 2.0 31.0 1.0 2.0 33.369268430053125 1.7017954240476618 2.0 37.0 1.0 2.0 39.272175521395219 1.6787854941614664 2.0 43.010662158996666 1.0 2.0 46.0 1.0 2.0 48.700287366178166 2.0975040133167564 2.0 51.734742292221512 2.2343003267044539 2.0 55.0 1.0 2.0 58.0 1.0 2.0 60.660602221478783 1.5138951831400411 2.0 64.346206178706211 1.8987186921536512 2.0 67.292917519876156 1.8433650716630376 2.0 70.0 1.0 2.0 72.674091803551363 1.8776118726339919 2.0 76.122371950545713 1.705085273475228 2.0 79.0 1.0 2.0 82.0 1.0 2.0 84.708029373755167 1.7870779396491625 2.0 87.953079893379055 1.7884472169769923 2.0 91.111653917152111 1.6188711454671616 2.0 94.0 1.0 2.0 96.525342999571535 1.8395043684306138 2.0 99.086098643355896 2.2400830178909752 2.0 13.310333596639538 1 2.0 14.765672654121479 1.9108241453448498 2.0 20.397473903336017 1.635941387732091 2.0 27.543321375730248 1 2.0 34.458146170411212 2.7319561603695126 2.0 41.077337250678347 1.802772229734823 2.0 50.097267920370662 1.5333741303090542 2.0 52.775144827861375 1.5270027160549042 2.0 61.55922523910904 2.6352372818285761 2.0 63.066549387129157 2.1360167825198531 2.0 66.051566332456929 2.6522264619087115 2.0 74.004102922712534 2.4684669069659284 2.0 75.78306544991392 3.1261559653309954 2.0 85.695361732668957 3.0185691007306166 2.0 89.042318598956967 2.6953695334184187 2.0 90.913445918518519 2.917006232921564 2.0 97.60595038126155 2.366239315644314 2.0 99.781006100953093 1.0159724135192576 2.0 15.673285457694741 2.389576055251561 2.0 19.298089397947308 2.9379817748236445 2.0 34.642649725275497 1.5518202955267473 2.0 40.829463222376475 3.2722305279761925 2.0 60.566163563240515 3.0793424634100486 2.0 62.667929601321411 3.4304173157211548 2.0 86.636447567741328 2.1434272214816108 2.0 19.892176128115448 3.5073249404573432 2.0 39.789354520990365 2.856980034419085 2.0 19.589110926185192 2.1545127958068595 2.0 40.317556298617411 1.5185862489174649 2.0 </DataArray>
</Points>
<Cells>
<DataArray Name="connectivity" format="ascii" type="Int32">0</DataArray>
<DataArray Name="offsets" format="ascii" type="Int32">0</DataArray>
<DataArray Name="types" format="ascii" type="UInt8">1</DataArray>
</Cells>
<PointData>
<DataArray Name="Points" NumberOfComponents="3" format="ascii" type="Float32">1.0 1.0 2.0 4.0 1.0 2.0 7.0 1.0 2.0 10.0 1.0 2.0 12.815475475456934 2.2778387144085643 2.0 16.607416106222612 1.9219097340498494 2.0 18.456699102742085 1.7698781385276741 2.0 22.039634168506122 1 2.0 25.0 1.0 2.0 28.106931183085504 2.2674622293158495 2.0 31.0 1.0 2.0 33.369268430053125 1.7017954240476618 2.0 37.0 1.0 2.0 39.272175521395219 1.6787854941614664 2.0 43.010662158996666 1.0 2.0 46.0 1.0 2.0 48.700287366178166 2.0975040133167564 2.0 51.734742292221512 2.2343003267044539 2.0 55.0 1.0 2.0 58.0 1.0 2.0 60.660602221478783 1.5138951831400411 2.0 64.346206178706211 1.8987186921536512 2.0 67.292917519876156 1.8433650716630376 2.0 70.0 1.0 2.0 72.674091803551363 1.8776118726339919 2.0 76.122371950545713 1.705085273475228 2.0 79.0 1.0 2.0 82.0 1.0 2.0 84.708029373755167 1.7870779396491625 2.0 87.953079893379055 1.7884472169769923 2.0 91.111653917152111 1.6188711454671616 2.0 94.0 1.0 2.0 96.525342999571535 1.8395043684306138 2.0 99.086098643355896 2.2400830178909752 2.0 13.310333596639538 1 2.0 14.765672654121479 1.9108241453448498 2.0 20.397473903336017 1.635941387732091 2.0 27.543321375730248 1 2.0 34.458146170411212 2.7319561603695126 2.0 41.077337250678347 1.802772229734823 2.0 50.097267920370662 1.5333741303090542 2.0 52.775144827861375 1.5270027160549042 2.0 61.55922523910904 2.6352372818285761 2.0 63.066549387129157 2.1360167825198531 2.0 66.051566332456929 2.6522264619087115 2.0 74.004102922712534 2.4684669069659284 2.0 75.78306544991392 3.1261559653309954 2.0 85.695361732668957 3.0185691007306166 2.0 89.042318598956967 2.6953695334184187 2.0 90.913445918518519 2.917006232921564 2.0 97.60595038126155 2.366239315644314 2.0 99.781006100953093 1.0159724135192576 2.0 15.673285457694741 2.389576055251561 2.0 19.298089397947308 2.9379817748236445 2.0 34.642649725275497 1.5518202955267473 2.0 40.829463222376475 3.2722305279761925 2.0 60.566163563240515 3.0793424634100486 2.0 62.667929601321411 3.4304173157211548 2.0 86.636447567741328 2.1434272214816108 2.0 19.892176128115448 3.5073249404573432 2.0 39.789354520990365 2.856980034419085 2.0 19.589110926185192 2.1545127958068595 2.0 40.317556298617411 1.5185862489174649 2.0 </DataArray>
<DataArray Name="forces" NumberOfComponents="3" format="ascii" type="Float32">0.0 0.0 0.0 0.0 0.0 0.0 0.0 0.0 0.0 0.0 0.0 0.0 -0.23836491184061795 0.61799128443999818 0.0 1.1797467733536808 -0.42877038915359572 0.0 -1.3655413189268506 -0.80153254128215545 0.0 0.15705934607633254 -0.063853427798348045 0.0 0.0 0.0 0.0 0.25888509783571789 0.5953862385835218 0.0 0.0 0.0 0.0 -1.270012198199767 -0.33515700442215085 0.0 0.0 0.0 0.0 -1.7303690586127429 -0.64026257852045698 0.0 0.0 0.0 0.0 0.0 0.0 0.0 -0.50016672162882536 0.19946049288319001 0.0 -0.49352807024624684 0.52663837436553385 0.0 0.0 0.0 0.0 0.0 0.0 0.0 -0.36151620247305871 -1.0068577370959364 0.0 0.61943772530099483 -0.18737034722806289 0.0 0.47899039612529409 -0.31025942404816731 0.0 0.0 0.0 0.0 -0.5467858087643489 -0.24276375983884371 0.0 0.14029730563055776 -0.5803222110590176 0.0 0.0 0.0 0.0 0.0 0.0 0.0 -0.35782781882429798 -0.37064670719499349 0.0 0.14001738330199515 -0.55154173517972693 0.0 0.11741758865637479 -0.75082294573568176 0.0 0.0 0.0 0.0 -0.7766128144123976 -0.36863878451821519 0.0 0.18419444744557462 0.50731665077217802 0.0 0.04111167690914036 -0.73944754942918856 0.0 -1.0044157148218635 -0.33881177947814045 0.0 1.2659931592127962 -1.1074876030560419 0.0 -0.25888509783571789 -0.5953862385835218 0.0 0.31505111086450688 1.3303255215480922 0.0 2.0721633141120677 -0.46890120806183366 0.0 0.31664926497066587 -0.27196526135473897 0.0 0.67704552690440634 -0.45413360589398488 0.0 0.36138519517727297 -0.15380929586777309 0.0 -0.098439623268267634 -0.64737303382670586 0.0 -0.38551776033520968 0.3490383244744199 0.0 0.46569622457122106 0.21406214927620423 0.0 -0.059207721437429903 0.60902382162165702 0.0 -0.27050885624335824 0.86502762931594823 0.0 0.38637967158482089 0.37697363667585648 0.0 -0.019574445371940544 0.76133258731981368 0.0 0.26854000358971697 0.41337606687648104 0.0 0.32387836337710602 -0.55205393313044393 0.0 -0.0013585900129502448 0.89062080226408469 0.0 -1.1668217931357949 1.1382602748520076 0.0 0.95496108733526008 -0.99516851712594134 0.0 0.89413001971346318 1.2958342894712365 0.0 -0.93589052177914756 0.91003128239127518 0.0 0.32155079125212171 1.0466002312009504 0.0 0.0040964768964059095 -0.33032246520121622 0.0 0.96908716566671771 1.8768276651538642 0.0 -1.2028618533023956 1.3378285519900199 0.0 0.16350420751940953 -1.0437967365124845 0.0 -0.033062421910391993 -1.5244990548789654 0.0 </DataArray>
<DataArray Name="radii" format="ascii" type="Float32">1 1 1 1 1 1 1 1 1 1 1 1 1 1 1 1 1 1 1 1 1 1 1 1 1 1 1 1 1 1 1 1 1 1 1 1 1 1 1 1 1 1 1 1 1 1 1 1 1 1 1 1 1 1 1 1 1 1 1 1 1 1 1 </DataArray>
</PointData>
<CellData/>
</Piece>
</UnstructuredGrid>
</VTKFile>
