<?xml version="1.0" ?>
<VTKFile byte_order="LittleEndian" type="UnstructuredGrid" version="0.1">
<UnstructuredGrid>
<Piece NumberOfCells="0" NumberOfPoints="52">
<Points>
<DataArray NumberOfComponents="3" format="ascii" type="Float32">1.0 1.0 2.0 4.0 1.0 2.0 7.0 1.0 2.0 10.0 1.0 2.0 12.927826689065787 2.0622584954194694 2.0 16.073641161005629 2.0244896495649125 2.0 18.998816254093029 2.0360880980105218 2.0 22.0 1.0 2.0 25.0 1.0 2.0 28.022540082044188 2.0592943067955662 2.0 31.0 1.0 2.0 33.913947502626065 1.9258982552048247 2.0 37.0 1.0 2.0 39.899999999999999 1.9831158451987863 2.0 43.0 1.0 2.0 46.0 1.0 2.0 48.891349312600234 2.0227750932084887 2.0 51.969156018321087 2.0525700857296996 2.0 55.0 1.0 2.0 58.0 1.0 2.0 60.892537568851843 1.9401552918118556 2.0 64.061167266700977 1.9820726057561469 2.0 67.107287846802663 1.9630855948691373 2.0 70.0 1.0 2.0 72.884997105249724 1.9711711121200086 2.0 76.067121042015273 1.9304304103598071 2.0 79.0 1.0 2.0 82.0 1.0 2.0 84.903426154091633 1.9578735605706379 2.0 87.946545126924164 1.9653278059759252 2.0 91.064646067181684 1.9101145141350362 2.0 94.0 1.0 2.0 96.814036682348359 1.9661198487359695 2.0 99.077109531640303 2.0546538092261089 2.0 13.288142985659434 1.0505579619450911 2.0 15.207702436179307 1.7365184168182894 2.0 19.916183237195813 1.3892806201443886 2.0 27.627712476771563 1.0206543802638079 2.0 34.223695788446364 2.192629484710678 2.0 40.470872613487927 2.0795028609778221 2.0 49.933895822632245 1.6179359516256997 2.0 52.513041253078143 1.698900055821281 2.0 61.45140074121985 2.5469271953786987 2.0 63.020159804296654 2.290695744228862 2.0 66.228812662781522 2.5291461234148982 2.0 73.802428878538436 2.378053572221019 2.0 75.829085100920082 2.8976649237053098 2.0 85.734084840626295 2.7092114018480191 2.0 88.875467571919103 2.5678505956286242 2.0 90.948227992940744 2.6245926765523082 2.0 97.453219533615425 2.2266207570830239 2.0 99.654032377538002 1.2144047004400584 2.0 </DataArray>
</Points>
<Cells>
<DataArray Name="connectivity" format="ascii" type="Int32">0</DataArray>
<DataArray Name="offsets" format="ascii" type="Int32">0</DataArray>
<DataArray Name="types" format="ascii" type="UInt8">1</DataArray>
</Cells>
<PointData>
<DataArray Name="Points" NumberOfComponents="3" format="ascii" type="Float32">1.0 1.0 2.0 4.0 1.0 2.0 7.0 1.0 2.0 10.0 1.0 2.0 12.927826689065787 2.0622584954194694 2.0 16.073641161005629 2.0244896495649125 2.0 18.998816254093029 2.0360880980105218 2.0 22.0 1.0 2.0 25.0 1.0 2.0 28.022540082044188 2.0592943067955662 2.0 31.0 1.0 2.0 33.913947502626065 1.9258982552048247 2.0 37.0 1.0 2.0 39.899999999999999 1.9831158451987863 2.0 43.0 1.0 2.0 46.0 1.0 2.0 48.891349312600234 2.0227750932084887 2.0 51.969156018321087 2.0525700857296996 2.0 55.0 1.0 2.0 58.0 1.0 2.0 60.892537568851843 1.9401552918118556 2.0 64.061167266700977 1.9820726057561469 2.0 67.107287846802663 1.9630855948691373 2.0 70.0 1.0 2.0 72.884997105249724 1.9711711121200086 2.0 76.067121042015273 1.9304304103598071 2.0 79.0 1.0 2.0 82.0 1.0 2.0 84.903426154091633 1.9578735605706379 2.0 87.946545126924164 1.9653278059759252 2.0 91.064646067181684 1.9101145141350362 2.0 94.0 1.0 2.0 96.814036682348359 1.9661198487359695 2.0 99.077109531640303 2.0546538092261089 2.0 13.288142985659434 1.0505579619450911 2.0 15.207702436179307 1.7365184168182894 2.0 19.916183237195813 1.3892806201443886 2.0 27.627712476771563 1.0206543802638079 2.0 34.223695788446364 2.192629484710678 2.0 40.470872613487927 2.0795028609778221 2.0 49.933895822632245 1.6179359516256997 2.0 52.513041253078143 1.698900055821281 2.0 61.45140074121985 2.5469271953786987 2.0 63.020159804296654 2.290695744228862 2.0 66.228812662781522 2.5291461234148982 2.0 73.802428878538436 2.378053572221019 2.0 75.829085100920082 2.8976649237053098 2.0 85.734084840626295 2.7092114018480191 2.0 88.875467571919103 2.5678505956286242 2.0 90.948227992940744 2.6245926765523082 2.0 97.453219533615425 2.2266207570830239 2.0 99.654032377538002 1.2144047004400584 2.0 </DataArray>
<DataArray Name="forces" NumberOfComponents="3" format="ascii" type="Float32">0.0 0.0 0.0 0.0 0.0 0.0 0.0 0.0 0.0 0.0 0.0 0.0 -0.35504244665378182 0.99689255268620336 0.0 1.1791535353217155 0.39213201515180834 0.0 -0.81956196932583969 0.57784814594232314 0.0 0.0 0.0 0.0 0.0 0.0 0.0 0.36091524177371309 0.94942951099178108 0.0 0.0 0.0 0.0 -1.3778857518824228 -1.1865284734179882 0.0 0.0 0.0 0.0 -1.601215297558342 -0.27035166954046513 0.0 0.0 0.0 0.0 0.0 0.0 0.0 -0.93912377876825459 0.36467827648749246 0.0 -1.2944862017979977 0.84176025464348436 0.0 0.0 0.0 0.0 0.0 0.0 0.0 -0.92009723789330278 -0.95824262228771806 0.0 0.97941963151436362 -0.28705617908616848 0.0 0.9173017666460721 -0.59107910195803548 0.0 0.0 0.0 0.0 -1.0408362945972767 -0.46161256285036417 0.0 0.27414474384991588 -1.1139589117673305 0.0 0.0 0.0 0.0 0.0 0.0 0.0 -0.74574754534597165 -0.67453499245959603 0.0 -0.8559276049806479 -0.55517647471259612 0.0 0.2345150682038051 -1.43926014995444 0.0 0.0 0.0 0.0 -1.3764577925268626 -0.54249416487556157 0.0 -0.36652568105812772 0.87512515402680546 0.0 0.35504244665378182 -0.99689255268620336 0.0 -1.1791535353217155 -0.39213201515180834 0.0 0.81956196932583969 -0.57784814594232314 0.0 -0.36091524177371309 -0.94942951099178108 0.0 1.3778857518824228 1.1865284734179882 0.0 1.601215297558342 0.27035166954046513 0.0 0.93912377876825459 -0.36467827648749246 0.0 1.2944862017979977 -0.84176025464348436 0.0 0.58107977370015984 1.001301007538723 0.0 -0.64040216732122057 0.24399779383516354 0.0 -0.9173017666460721 0.59107910195803548 0.0 1.0408362945972767 0.46161256285036417 0.0 -0.27414474384991588 1.1139589117673305 0.0 0.74574754534597165 0.67453499245959603 0.0 0.8559276049806479 0.55517647471259612 0.0 -0.2345150682038051 1.43926014995444 0.0 1.1044749819567403 0.57274799245503594 0.0 0.63850849162824996 -0.90537898160627983 0.0 </DataArray>
<DataArray Name="radii" format="ascii" type="Float32">1 1 1 1 1 1 1 1 1 1 1 1 1 1 1 1 1 1 1 1 1 1 1 1 1 1 1 1 1 1 1 1 1 1 1 1 1 1 1 1 1 1 1 1 1 1 1 1 1 1 1 1 </DataArray>
</PointData>
<CellData/>
</Piece>
</UnstructuredGrid>
</VTKFile>
