<?xml version="1.0" ?>
<VTKFile byte_order="LittleEndian" type="UnstructuredGrid" version="0.1">
<UnstructuredGrid>
<Piece NumberOfCells="0" NumberOfPoints="63">
<Points>
<DataArray NumberOfComponents="3" format="ascii" type="Float32">1.0 1.0 2.0 4.0 1.0 2.0 7.0 1.0 2.0 10.0 1.0 2.0 12.658101877326958 2.6877555513521862 2.0 16.644872879981254 1.630747512619297 2.0 18.229666721816116 1.332234533180936 2.0 22.405358044906674 1 2.0 25.0 1.0 2.0 28.274159714606004 2.6055272385093464 2.0 31.0 1.0 2.0 33.031735617469813 1.6628140084108036 2.0 36.918921688225701 1 2.0 38.646680081713747 1.5006222623361221 2.0 43.173880471556934 1 2.0 46.0 1.0 2.0 48.462385650989113 2.2029342963127951 2.0 51.615457664945559 2.5561390818592931 2.0 55.003261853577413 1 2.0 58.0 1.0 2.0 60.449623292959281 1.1586787481549903 2.0 64.667503123931667 1.7292038738810465 2.0 67.505586206812225 1.694838249190556 2.0 70.0 1.0 2.0 72.415016982065694 1.7623668015074354 2.0 76.172880672417165 1.4733747678714733 2.0 79.0 1.0 2.0 82.0 1.0 2.0 84.589003401294875 1.6571195796785636 2.0 88.154589538278628 1.3884703175725599 2.0 91.15095219635397 1.3111893335454967 2.0 94.0 1.0 2.0 96.115725865557451 1.6083478678948373 2.0 99.323454404126451 2.6027376901091448 2.0 13.117631742105647 1 2.0 14.632814835314642 1.7369403764168738 2.0 20.807243955507253 1.299862024058472 2.0 27.376092844209747 1 2.0 34.484053383354919 3.1125181928333432 2.0 41.647199413527481 1.9141754313853505 2.0 50.164200228563018 1.3205604509696769 2.0 53.062137008556604 1.3130976430076644 2.0 61.58605288300231 2.5886210109019592 2.0 63.001136040702505 1.7913825186368431 2.0 66.026042266094535 2.9235264800747278 2.0 74.148124624445117 2.5311381822001624 2.0 75.847609847795539 3.4104402668270724 2.0 85.505559609587806 3.4708774399003035 2.0 89.146548363791609 2.9365617142870821 2.0 91.017538387826377 3.2477911572919869 2.0 97.585442473461256 2.6228046513941492 2.0 99.973775381996887 1 2.0 15.69897086072092 3.1154838139769319 2.0 18.594263150937699 3.3983203170610077 2.0 34.954275324915102 1.2102396786997749 2.0 41.207785451710578 3.6900468897632979 2.0 60.081737900845503 3.4144828707552373 2.0 62.89347832897019 3.8884855007497126 2.0 86.496145505038825 1.9567588483695337 2.0 20.413676247213331 3.9442197314752132 2.0 39.431197254478832 3.1701670446957784 2.0 19.642766601136987 2.0709916792671357 2.0 40.270884611841204 1 2.0 </DataArray>
</Points>
<Cells>
<DataArray Name="connectivity" format="ascii" type="Int32">0</DataArray>
<DataArray Name="offsets" format="ascii" type="Int32">0</DataArray>
<DataArray Name="types" format="ascii" type="UInt8">1</DataArray>
</Cells>
<PointData>
<DataArray Name="Points" NumberOfComponents="3" format="ascii" type="Float32">1.0 1.0 2.0 4.0 1.0 2.0 7.0 1.0 2.0 10.0 1.0 2.0 12.658101877326958 2.6877555513521862 2.0 16.644872879981254 1.630747512619297 2.0 18.229666721816116 1.332234533180936 2.0 22.405358044906674 1 2.0 25.0 1.0 2.0 28.274159714606004 2.6055272385093464 2.0 31.0 1.0 2.0 33.031735617469813 1.6628140084108036 2.0 36.918921688225701 1 2.0 38.646680081713747 1.5006222623361221 2.0 43.173880471556934 1 2.0 46.0 1.0 2.0 48.462385650989113 2.2029342963127951 2.0 51.615457664945559 2.5561390818592931 2.0 55.003261853577413 1 2.0 58.0 1.0 2.0 60.449623292959281 1.1586787481549903 2.0 64.667503123931667 1.7292038738810465 2.0 67.505586206812225 1.694838249190556 2.0 70.0 1.0 2.0 72.415016982065694 1.7623668015074354 2.0 76.172880672417165 1.4733747678714733 2.0 79.0 1.0 2.0 82.0 1.0 2.0 84.589003401294875 1.6571195796785636 2.0 88.154589538278628 1.3884703175725599 2.0 91.15095219635397 1.3111893335454967 2.0 94.0 1.0 2.0 96.115725865557451 1.6083478678948373 2.0 99.323454404126451 2.6027376901091448 2.0 13.117631742105647 1 2.0 14.632814835314642 1.7369403764168738 2.0 20.807243955507253 1.299862024058472 2.0 27.376092844209747 1 2.0 34.484053383354919 3.1125181928333432 2.0 41.647199413527481 1.9141754313853505 2.0 50.164200228563018 1.3205604509696769 2.0 53.062137008556604 1.3130976430076644 2.0 61.58605288300231 2.5886210109019592 2.0 63.001136040702505 1.7913825186368431 2.0 66.026042266094535 2.9235264800747278 2.0 74.148124624445117 2.5311381822001624 2.0 75.847609847795539 3.4104402668270724 2.0 85.505559609587806 3.4708774399003035 2.0 89.146548363791609 2.9365617142870821 2.0 91.017538387826377 3.2477911572919869 2.0 97.585442473461256 2.6228046513941492 2.0 99.973775381996887 1 2.0 15.69897086072092 3.1154838139769319 2.0 18.594263150937699 3.3983203170610077 2.0 34.954275324915102 1.2102396786997749 2.0 41.207785451710578 3.6900468897632979 2.0 60.081737900845503 3.4144828707552373 2.0 62.89347832897019 3.8884855007497126 2.0 86.496145505038825 1.9567588483695337 2.0 20.413676247213331 3.9442197314752132 2.0 39.431197254478832 3.1701670446957784 2.0 19.642766601136987 2.0709916792671357 2.0 40.270884611841204 1 2.0 </DataArray>
<DataArray Name="forces" NumberOfComponents="3" format="ascii" type="Float32">0.0 0.0 0.0 0.0 0.0 0.0 0.0 0.0 0.0 0.0 0.0 0.0 -0.08485785041749061 0.28281724724643797 0.0 -0.24379718843592499 -0.17777471027720942 0.0 0.024078952675411991 -0.26554862249122835 0.0 0.39118144894443008 -0.087884697473735895 0.0 0.0 0.0 0.0 0.10120194635024285 0.18497423346436906 0.0 0.0 0.0 0.0 -0.049934246171764292 0.011414389299425766 0.0 -0.18530562942257747 -0.053774640928315375 0.0 -0.22491157656319311 -0.015422976178775277 0.0 0.20810335611009192 -0.12069509737617043 0.0 0.0 0.0 0.0 -0.10624870481246047 0.053472498948927062 0.0 -0.0052269333212413005 0.17134684320712046 0.0 0.016790018551359868 -0.0028325330892997607 0.0 0.0 0.0 0.0 -0.13601682913445567 -0.16766414025695342 0.0 0.20598528669553651 -0.15286372870863224 0.0 0.087251750852486418 -0.069345148943485188 0.0 0.0 0.0 0.0 -0.12522692020842024 -0.055631528097523773 0.0 0.011981981064900048 -0.067277620756370268 0.0 0.0 0.0 0.0 0.0 0.0 0.0 -0.058748626286708745 -0.0097006087245091292 0.0 0.17053677585355798 -0.26951856277306058 0.0 0.0081072379831542106 -0.099606001284323786 0.0 0.0 0.0 0.0 -0.22384524054623672 -0.148061611797667 0.0 0.19224969710892942 0.28192151203854965 0.0 -0.24127057021290049 -0.45264663272035344 0.0 0.10575769866780171 -0.087373165438995454 0.0 0.19591001462561852 -0.26074106705256606 0.0 -0.10120194635024285 -0.18497423346436906 0.0 -0.017307251701997158 0.071407885107250935 0.0 0.18388727613777001 0.16195999738532729 0.0 0.0047113197444857979 -0.13563793381147946 0.0 0.089974299837856112 -0.086348875255268298 0.0 -0.072009524398792657 0.061010891551315116 0.0 -0.015505526269784964 -0.1768330619168359 0.0 0.081732705838360301 0.20677080722536673 0.0 0.032163215713147689 0.0083465507648703141 0.0 0.08108172343037251 0.11456259808902372 0.0 -0.13574708613365366 0.20115438021199958 0.0 -0.0021675139152381867 0.15154683123781137 0.0 0.1148050162493143 0.12070170042591469 0.0 -0.092828531537404779 0.15642666767663585 0.0 0.12442407497471208 -0.2902865679175185 0.0 0.02981136314999297 0.5147385728045375 0.0 -0.3975522830199899 0.22370321132447332 0.0 0.067241497873761449 -0.082822274406676694 0.0 0.15443557130682428 0.23809876435512353 0.0 -0.28897705749274932 0.15944121392609556 0.0 0.13753919390939939 0.13948316712312936 0.0 -0.096785803750425892 -0.094577739093832158 0.0 0.18908680002774597 0.063965866030007174 0.0 -0.12048923517392333 0.11174587981125614 0.0 0.031651613995304723 0.24674399804863262 0.0 -0.015719762394992287 -0.32191192706844585 0.0 </DataArray>
<DataArray Name="radii" format="ascii" type="Float32">1 1 1 1 1 1 1 1 1 1 1 1 1 1 1 1 1 1 1 1 1 1 1 1 1 1 1 1 1 1 1 1 1 1 1 1 1 1 1 1 1 1 1 1 1 1 1 1 1 1 1 1 1 1 1 1 1 1 1 1 1 1 1 </DataArray>
</PointData>
<CellData/>
</Piece>
</UnstructuredGrid>
</VTKFile>
