<?xml version="1.0" ?>
<VTKFile byte_order="LittleEndian" type="UnstructuredGrid" version="0.1">
<UnstructuredGrid>
<Piece NumberOfCells="0" NumberOfPoints="63">
<Points>
<DataArray NumberOfComponents="3" format="ascii" type="Float32">1.0 1.0 2.0 4.0 1.0 2.0 7.0 1.0 2.0 10.0 1.0 2.0 12.826978666842345 2.2480152308910593 2.0 16.550483008077343 1.9426016547220057 2.0 18.522598412397222 1.8085590926698245 2.0 22.032054681647789 1 2.0 25.0 1.0 2.0 28.094437713286446 2.2387296369314194 2.0 31.0 1.0 2.0 33.430557624275927 1.7179696803014826 2.0 37.0 1.0 2.0 39.355680959737285 1.7096837623703509 2.0 43.010662158996666 1.0 2.0 46.0 1.0 2.0 48.724424784219615 2.0878783003468953 2.0 51.758559337281866 2.2088854199362968 2.0 55.0 1.0 2.0 58.0 1.0 2.0 60.678048539537357 1.5624848734525241 2.0 64.316312891768717 1.9077609498730121 2.0 67.269802044717267 1.8583378019461774 2.0 70.0 1.0 2.0 72.7004790002091 1.8893273469011767 2.0 76.115601378715056 1.7330908948037616 2.0 79.0 1.0 2.0 82.0 1.0 2.0 84.725297695049505 1.8049648844025405 2.0 87.946322830248533 1.8150639286726178 2.0 91.105987491737821 1.6551049181926194 2.0 94.0 1.0 2.0 96.562821358980926 1.8572944133564975 2.0 99.077209650572797 2.2156005532455878 2.0 13.308349598726384 1 2.0 14.814144495504902 1.9271747764544118 2.0 20.336378662888944 1.6893873490380225 2.0 27.555814845529305 1 2.0 34.442942199338134 2.6677563208834951 2.0 40.977337250678346 1.8254008133444484 2.0 50.08198682438686 1.5464988323777846 2.0 52.742471460743374 1.548918633724192 2.0 61.541785243298087 2.6426599253441854 2.0 63.071299959760083 2.1672581923748533 2.0 66.07017093556469 2.6353823105767504 2.0 73.981629007582399 2.4581365363904832 2.0 75.785922740216961 3.0967652403107224 2.0 85.708416150455491 2.9768239533561385 2.0 89.023672401094402 2.677177258991565 2.0 90.914390556677034 2.8802652780877964 2.0 97.592990977832258 2.3462903056381399 2.0 99.765376137756107 1.0426138432449354 2.0 15.673351021543096 2.346595813482069 2.0 19.354398752774188 2.8830507630110085 2.0 34.596564502125773 1.5998458787589442 2.0 40.786313630178597 3.2096951920474939 2.0 60.611328464839026 3.0354254962388953 2.0 62.652411963832982 3.3799097025386762 2.0 86.636249876909318 2.1593681689422488 2.0 19.845409198160318 3.4167515936380028 2.0 39.847403123873669 2.79241810810377 2.0 19.581220418404946 2.2048851158553764 2.0 40.319151849589929 1.5921566593429684 2.0 </DataArray>
</Points>
<Cells>
<DataArray Name="connectivity" format="ascii" type="Int32">0</DataArray>
<DataArray Name="offsets" format="ascii" type="Int32">0</DataArray>
<DataArray Name="types" format="ascii" type="UInt8">1</DataArray>
</Cells>
<PointData>
<DataArray Name="Points" NumberOfComponents="3" format="ascii" type="Float32">1.0 1.0 2.0 4.0 1.0 2.0 7.0 1.0 2.0 10.0 1.0 2.0 12.826978666842345 2.2480152308910593 2.0 16.550483008077343 1.9426016547220057 2.0 18.522598412397222 1.8085590926698245 2.0 22.032054681647789 1 2.0 25.0 1.0 2.0 28.094437713286446 2.2387296369314194 2.0 31.0 1.0 2.0 33.430557624275927 1.7179696803014826 2.0 37.0 1.0 2.0 39.355680959737285 1.7096837623703509 2.0 43.010662158996666 1.0 2.0 46.0 1.0 2.0 48.724424784219615 2.0878783003468953 2.0 51.758559337281866 2.2088854199362968 2.0 55.0 1.0 2.0 58.0 1.0 2.0 60.678048539537357 1.5624848734525241 2.0 64.316312891768717 1.9077609498730121 2.0 67.269802044717267 1.8583378019461774 2.0 70.0 1.0 2.0 72.7004790002091 1.8893273469011767 2.0 76.115601378715056 1.7330908948037616 2.0 79.0 1.0 2.0 82.0 1.0 2.0 84.725297695049505 1.8049648844025405 2.0 87.946322830248533 1.8150639286726178 2.0 91.105987491737821 1.6551049181926194 2.0 94.0 1.0 2.0 96.562821358980926 1.8572944133564975 2.0 99.077209650572797 2.2156005532455878 2.0 13.308349598726384 1 2.0 14.814144495504902 1.9271747764544118 2.0 20.336378662888944 1.6893873490380225 2.0 27.555814845529305 1 2.0 34.442942199338134 2.6677563208834951 2.0 40.977337250678346 1.8254008133444484 2.0 50.08198682438686 1.5464988323777846 2.0 52.742471460743374 1.548918633724192 2.0 61.541785243298087 2.6426599253441854 2.0 63.071299959760083 2.1672581923748533 2.0 66.07017093556469 2.6353823105767504 2.0 73.981629007582399 2.4581365363904832 2.0 75.785922740216961 3.0967652403107224 2.0 85.708416150455491 2.9768239533561385 2.0 89.023672401094402 2.677177258991565 2.0 90.914390556677034 2.8802652780877964 2.0 97.592990977832258 2.3462903056381399 2.0 99.765376137756107 1.0426138432449354 2.0 15.673351021543096 2.346595813482069 2.0 19.354398752774188 2.8830507630110085 2.0 34.596564502125773 1.5998458787589442 2.0 40.786313630178597 3.2096951920474939 2.0 60.611328464839026 3.0354254962388953 2.0 62.652411963832982 3.3799097025386762 2.0 86.636249876909318 2.1593681689422488 2.0 19.845409198160318 3.4167515936380028 2.0 39.847403123873669 2.79241810810377 2.0 19.581220418404946 2.2048851158553764 2.0 40.319151849589929 1.5921566593429684 2.0 </DataArray>
<DataArray Name="forces" NumberOfComponents="3" format="ascii" type="Float32">0.0 0.0 0.0 0.0 0.0 0.0 0.0 0.0 0.0 0.0 0.0 0.0 -0.24716492223154851 0.64591039674293926 0.0 1.3871381836889509 -0.43088472763815849 0.0 -1.702632101164633 -0.96782017373465035 0.0 0.081406582192003793 -0.03466528209280826 0.0 0.0 0.0 0.0 0.26693609733198642 0.62640503661673086 0.0 0.0 0.0 0.0 -1.4546640824776409 -0.41084665503240692 0.0 0.0 0.0 0.0 -2.1189991266888102 -0.8337859592172211 0.0 0.0 0.0 0.0 0.0 0.0 0.0 -0.53940681771467625 0.21312398792809648 0.0 -0.57220993522993235 0.54767087901638478 0.0 0.0 0.0 0.0 0.0 0.0 0.0 -0.3993685135795359 -1.1361824298526686 0.0 0.67235803766312452 -0.19318538730434681 0.0 0.52002605921385248 -0.33570402945612215 0.0 0.0 0.0 0.0 -0.59202379132403071 -0.26272444715034671 0.0 0.15387803700038205 -0.63112374168475494 0.0 0.0 0.0 0.0 0.0 0.0 0.0 -0.41248179248748357 -0.40080439039257043 0.0 0.11179330055018799 -0.56180391303592314 0.0 0.12980653586549157 -0.81605604187732195 0.0 0.0 0.0 0.0 -0.83094776496962841 -0.38542054247603796 0.0 0.14748664754525437 0.53979191235689039 0.0 0.094444741196301557 -0.7382017785513757 0.0 -1.2265217005222899 -0.37128222177297326 0.0 1.6463808054489162 -1.4778446815631074 0.0 -0.26693609733198642 -0.62640503661673086 0.0 0.39230764616168529 1.5097485249799671 0.0 2.4829170070927269 -0.66726602575823502 0.0 0.3766489602323761 -0.27285730302289224 0.0 0.73496779271223245 -0.48793756392158899 0.0 0.44979463960510491 -0.12274201899185833 0.0 -0.089745075116174133 -0.66613409816396529 0.0 -0.45733081144954535 0.36027996314045507 0.0 0.52766630617056709 0.24083878263655562 0.0 -0.089520551846918386 0.65300940619854608 0.0 -0.27986335930985584 0.90556948141444016 0.0 0.43708761207611929 0.39262405183946181 0.0 -0.049507551577644068 0.82386266224423677 0.0 0.33069667987581264 0.43072442076547934 0.0 0.3527644375485614 -0.58509579064633177 0.0 -0.0078963021314142345 0.89445833121956819 0.0 -1.1873199763460072 1.321741495346956 0.0 1.0623564363159557 -1.0989018699475603 0.0 1.0687518485234384 1.6808395939342071 0.0 -1.0048129485906296 1.0052230203753569 0.0 0.30907861225380306 1.0884449802531491 0.0 0.063165254883184696 -0.34339185019232327 0.0 1.0099474085578275 2.3574947630308491 0.0 -1.3927415457952685 1.6156660523631403 0.0 0.15221728131189244 -1.1989061209872389 0.0 -0.039928183132086681 -1.7954536613218914 0.0 </DataArray>
<DataArray Name="radii" format="ascii" type="Float32">1 1 1 1 1 1 1 1 1 1 1 1 1 1 1 1 1 1 1 1 1 1 1 1 1 1 1 1 1 1 1 1 1 1 1 1 1 1 1 1 1 1 1 1 1 1 1 1 1 1 1 1 1 1 1 1 1 1 1 1 1 1 1 </DataArray>
</PointData>
<CellData/>
</Piece>
</UnstructuredGrid>
</VTKFile>
