<?xml version="1.0" ?>
<VTKFile byte_order="LittleEndian" type="UnstructuredGrid" version="0.1">
<UnstructuredGrid>
<Piece NumberOfCells="0" NumberOfPoints="63">
<Points>
<DataArray NumberOfComponents="3" format="ascii" type="Float32">1.0 1.0 2.0 4.0 1.0 2.0 7.0 1.0 2.0 10.0 1.0 2.0 12.604886607888375 2.9213032391247826 2.0 16.49805524973079 1.5631939029454778 2.0 18.290269611840145 1.0348247109158399 2.0 22.795995397698142 1 2.0 25.0 1.0 2.0 28.333603518796643 2.7093835264248249 2.0 31.0 1.0 2.0 32.992503664604733 1.6724479424493583 2.0 36.763284560081829 1 2.0 38.521160588931508 1.5414796129393573 2.0 43.382950352311703 1 2.0 46.0 1.0 2.0 48.417132337169626 2.2269575582053047 2.0 51.611987949558106 2.6370617912744354 2.0 55.043423003851778 1 2.0 58.0 1.0 2.0 60.364684516355915 1.0472509037812234 2.0 64.887015838434806 1.585999883988005 2.0 67.539090038726712 1.6657713016767373 2.0 70.0 1.0 2.0 72.338745854007982 1.7286141050883082 2.0 76.174894577291909 1.4611627903012783 2.0 79.0 1.0 2.0 82.0 1.0 2.0 84.503924146391924 1.6446593560157761 2.0 88.296233539432734 1.2144517043954695 2.0 91.152550021235129 1.2853387233990858 2.0 94.0 1.0 2.0 95.967384721844937 1.5000924722096012 2.0 99.461926968196977 2.847358476069243 2.0 12.892779899548499 1 2.0 14.645872060022755 1.7275714649930531 2.0 20.891153881508277 1 2.0 27.316649040019108 1 2.0 34.477826359601295 3.1383683337797228 2.0 41.803688172518463 2.0684628575653443 2.0 50.165468303517095 1.2576234782917832 2.0 53.069430812535089 1.2771806066652749 2.0 61.493943941144089 2.6828027250683268 2.0 62.996831109595995 1.5821793588946136 2.0 66.127621182016824 3.0867258462742555 2.0 74.156782618788029 2.5294812802394384 2.0 75.913209076635596 3.4580618427771181 2.0 85.424167830407939 3.5987095271149294 2.0 89.123040131420481 3.0261154120737359 2.0 91.098444408228445 3.2864451874814549 2.0 97.505139386153331 2.7281106374005462 2.0 100.06394704894682 1 2.0 15.725113542233109 3.3990377208112008 2.0 18.333122004545281 3.6473728797553471 2.0 34.881046276682284 1.1869402623317644 2.0 41.264861697284587 3.9137181829818917 2.0 59.81336354783798 3.5593544067391378 2.0 62.988609869205916 3.979134825922773 2.0 86.461976925055424 1.9130484801650749 2.0 20.487484357717943 4.049576013598096 2.0 39.391913217762287 3.277804891541674 2.0 19.680634304234168 2.3225920608526667 2.0 40.287378409015638 1 2.0 </DataArray>
</Points>
<Cells>
<DataArray Name="connectivity" format="ascii" type="Int32">0</DataArray>
<DataArray Name="offsets" format="ascii" type="Int32">0</DataArray>
<DataArray Name="types" format="ascii" type="UInt8">1</DataArray>
</Cells>
<PointData>
<DataArray Name="Points" NumberOfComponents="3" format="ascii" type="Float32">1.0 1.0 2.0 4.0 1.0 2.0 7.0 1.0 2.0 10.0 1.0 2.0 12.604886607888375 2.9213032391247826 2.0 16.49805524973079 1.5631939029454778 2.0 18.290269611840145 1.0348247109158399 2.0 22.795995397698142 1 2.0 25.0 1.0 2.0 28.333603518796643 2.7093835264248249 2.0 31.0 1.0 2.0 32.992503664604733 1.6724479424493583 2.0 36.763284560081829 1 2.0 38.521160588931508 1.5414796129393573 2.0 43.382950352311703 1 2.0 46.0 1.0 2.0 48.417132337169626 2.2269575582053047 2.0 51.611987949558106 2.6370617912744354 2.0 55.043423003851778 1 2.0 58.0 1.0 2.0 60.364684516355915 1.0472509037812234 2.0 64.887015838434806 1.585999883988005 2.0 67.539090038726712 1.6657713016767373 2.0 70.0 1.0 2.0 72.338745854007982 1.7286141050883082 2.0 76.174894577291909 1.4611627903012783 2.0 79.0 1.0 2.0 82.0 1.0 2.0 84.503924146391924 1.6446593560157761 2.0 88.296233539432734 1.2144517043954695 2.0 91.152550021235129 1.2853387233990858 2.0 94.0 1.0 2.0 95.967384721844937 1.5000924722096012 2.0 99.461926968196977 2.847358476069243 2.0 12.892779899548499 1 2.0 14.645872060022755 1.7275714649930531 2.0 20.891153881508277 1 2.0 27.316649040019108 1 2.0 34.477826359601295 3.1383683337797228 2.0 41.803688172518463 2.0684628575653443 2.0 50.165468303517095 1.2576234782917832 2.0 53.069430812535089 1.2771806066652749 2.0 61.493943941144089 2.6828027250683268 2.0 62.996831109595995 1.5821793588946136 2.0 66.127621182016824 3.0867258462742555 2.0 74.156782618788029 2.5294812802394384 2.0 75.913209076635596 3.4580618427771181 2.0 85.424167830407939 3.5987095271149294 2.0 89.123040131420481 3.0261154120737359 2.0 91.098444408228445 3.2864451874814549 2.0 97.505139386153331 2.7281106374005462 2.0 100.06394704894682 1 2.0 15.725113542233109 3.3990377208112008 2.0 18.333122004545281 3.6473728797553471 2.0 34.881046276682284 1.1869402623317644 2.0 41.264861697284587 3.9137181829818917 2.0 59.81336354783798 3.5593544067391378 2.0 62.988609869205916 3.979134825922773 2.0 86.461976925055424 1.9130484801650749 2.0 20.487484357717943 4.049576013598096 2.0 39.391913217762287 3.277804891541674 2.0 19.680634304234168 2.3225920608526667 2.0 40.287378409015638 1 2.0 </DataArray>
<DataArray Name="forces" NumberOfComponents="3" format="ascii" type="Float32">0.0 0.0 0.0 0.0 0.0 0.0 0.0 0.0 0.0 0.0 0.0 0.0 -0.018723255983286117 0.10257199693442512 0.0 -0.016852295936715632 0.0048442028228169592 0.0 0.054714751122843797 -0.15486832726326982 0.0 0.18191347856230847 -0.0061532725033010298 0.0 0.0 0.0 0.0 0.018091315566599674 0.030709737884648598 0.0 0.0 0.0 0.0 -0.036883638121429738 0.0092163812462697781 0.0 -0.071937612787788305 -0.062711541587685521 0.0 -0.042081748821845705 0.040085354672066885 0.0 0.10855241009748112 -0.07102912153451868 0.0 0.0 0.0 0.0 -0.0084711880972154156 0.0046642915637935579 0.0 -0.0051759094161503132 0.019975249526518919 0.0 0.017594158608237705 -0.0025337894199122784 0.0 0.0 0.0 0.0 -0.026725797595640133 -0.037239633398364058 0.0 0.11642232664579094 -0.067471306265861286 0.0 0.0041288106651439643 -0.0039614712873514164 0.0 0.0 0.0 0.0 -0.026993209098571763 -0.011909464420132784 0.0 0.0 0.0 0.0 0.0 0.0 0.0 0.0 0.0 0.0 -0.043837396974960793 -0.0061063791940473818 0.0 0.061613568072437071 -0.058300241618385387 0.0 0.0 0.0 0.0 0.0 0.0 0.0 -0.055277159575598853 -0.042876171181022195 0.0 0.051558958608353717 0.10874940090450923 0.0 -0.11427254383431265 -0.15754264708544397 0.0 -0.045601016516296874 0.033791162268761971 0.0 0.022014873091664527 -0.20012240011802135 0.0 -0.018091315566599674 -0.030709737884648598 0.0 -0.0022565552755438928 0.010019499947463146 0.0 0.082636085930105158 0.080816560098630433 0.0 0.00030476461306418526 -0.012335749789575691 0.0 -0.0042518257079361618 -0.0097700018808245092 0.0 -0.045154259383524957 0.049951643477326453 0.0 -0.0020987754514294743 -0.11570315478516432 0.0 0.054261996309232181 0.069259089392771631 0.0 0.00067908233681823055 -0.0019829006581153462 0.0 0.026314126761753532 0.01389236507824813 0.0 -0.026816415761091467 0.04330418800429249 0.0 -0.011911015803948776 0.026109697550559856 0.0 0.026558258625718593 0.0037052424141440872 0.0 -0.032164437333936646 0.039169447177444472 0.0 0.035882638301181782 -0.10504267690093151 0.0 0.008651946922484114 0.063285544306740021 0.0 -0.12605690392908078 0.12850969620991953 0.0 -0.064015649378104833 -0.0087512520799320811 0.0 0.0074563467407239049 0.11439572728537779 0.0 -0.13697968565557658 0.072611081845976339 0.0 0.036145384466004064 0.032553751020666676 0.0 -0.0056069981581546267 -0.0087125071565636661 0.0 0.047385829044301345 0.1035932812914927 0.0 -0.0023860513590615029 0.055888598346409607 0.0 0.0068251374560897998 0.082090763135879874 0.0 0.020916412975463788 -0.16793020639408135 0.0 </DataArray>
<DataArray Name="radii" format="ascii" type="Float32">1 1 1 1 1 1 1 1 1 1 1 1 1 1 1 1 1 1 1 1 1 1 1 1 1 1 1 1 1 1 1 1 1 1 1 1 1 1 1 1 1 1 1 1 1 1 1 1 1 1 1 1 1 1 1 1 1 1 1 1 1 1 1 </DataArray>
</PointData>
<CellData/>
</Piece>
</UnstructuredGrid>
</VTKFile>
