<?xml version="1.0" ?>
<VTKFile byte_order="LittleEndian" type="UnstructuredGrid" version="0.1">
<UnstructuredGrid>
<Piece NumberOfCells="0" NumberOfPoints="63">
<Points>
<DataArray NumberOfComponents="3" format="ascii" type="Float32">1.0 1.0 2.0 4.0 1.0 2.0 7.0 1.0 2.0 10.0 1.0 2.0 12.594480723224999 2.9960424773705685 2.0 16.504305880082125 1.5893867683173419 2.0 18.383469640869915 1 2.0 23.000259582365338 1.0 2.0 25.000499088707453 1.0 2.0 28.339504690171488 2.7193027168559385 2.0 30.973781872756909 1 2.0 32.824788259335712 1.7356188581640268 2.0 36.666152392635198 1 2.0 38.528066713718303 1.6448554564304603 2.0 43.540231332617822 1 2.0 46.0 1.0 2.0 48.416279059710128 2.2274306428623909 2.0 51.607772781243604 2.6426923009903254 2.0 55.050335613390978 1.0 2.0 58.0 1.0 2.0 60.357236073306098 1.0364630242838537 2.0 65.002470067661363 1.5272858109102947 2.0 67.539090038726712 1.6657713016767373 2.0 70.0 1.0 2.0 72.325875090850943 1.7229443783086817 2.0 76.174894577291909 1.4611627903012783 2.0 79.0 1.0 2.0 82.0 1.0 2.0 84.479312715376153 1.6412858818753633 2.0 88.329032925542194 1.1923258782873332 2.0 91.152550021235129 1.2853387233990858 2.0 93.998985396877359 1.0 2.0 95.94205813664756 1.4793073674499591 2.0 99.484144820363838 2.909206198113325 2.0 12.685899096547729 1 2.0 14.523449125623356 1.8289628203305925 2.0 20.998593568956796 1 2.0 27.310747868644263 1.0 2.0 34.475805835288114 3.1485521910201868 2.0 41.961526412104917 2.2173883121851481 2.0 50.16542185170173 1.2562923886733075 2.0 53.067633100585248 1.27337874470974 2.0 61.455674006899116 2.7273511043191787 2.0 62.999539559187205 1.4556456025613316 2.0 66.17604453063727 3.1468759330758589 2.0 74.157371756309587 2.5286580059654091 2.0 75.925490702271077 3.4645548438307738 2.0 85.412884633677649 3.6170362553267053 2.0 89.11895536446022 3.0332907363276576 2.0 91.106274800916665 3.2874771202325435 2.0 97.489961447737386 2.7466159489695494 2.0 100.08324832351592 1.0 2.0 15.721327409410849 3.4693491579815752 2.0 18.154434140278259 3.8176356637576458 2.0 34.710171911402782 1.1579235654475639 2.0 41.286120356050517 4.0925449354505963 2.0 59.671707238228784 3.6328473231871152 2.0 63.009398528671696 3.9969791523307014 2.0 86.46132654096408 1.9120137951968375 2.0 20.609137857356597 4.2948037972573259 2.0 39.407300512881719 3.4196063957575689 2.0 19.669510803544075 2.4985913140509886 2.0 40.39266770000232 1 2.0 </DataArray>
</Points>
<Cells>
<DataArray Name="connectivity" format="ascii" type="Int32">0</DataArray>
<DataArray Name="offsets" format="ascii" type="Int32">0</DataArray>
<DataArray Name="types" format="ascii" type="UInt8">1</DataArray>
</Cells>
<PointData>
<DataArray Name="Points" NumberOfComponents="3" format="ascii" type="Float32">1.0 1.0 2.0 4.0 1.0 2.0 7.0 1.0 2.0 10.0 1.0 2.0 12.594480723224999 2.9960424773705685 2.0 16.504305880082125 1.5893867683173419 2.0 18.383469640869915 1 2.0 23.000259582365338 1.0 2.0 25.000499088707453 1.0 2.0 28.339504690171488 2.7193027168559385 2.0 30.973781872756909 1 2.0 32.824788259335712 1.7356188581640268 2.0 36.666152392635198 1 2.0 38.528066713718303 1.6448554564304603 2.0 43.540231332617822 1 2.0 46.0 1.0 2.0 48.416279059710128 2.2274306428623909 2.0 51.607772781243604 2.6426923009903254 2.0 55.050335613390978 1.0 2.0 58.0 1.0 2.0 60.357236073306098 1.0364630242838537 2.0 65.002470067661363 1.5272858109102947 2.0 67.539090038726712 1.6657713016767373 2.0 70.0 1.0 2.0 72.325875090850943 1.7229443783086817 2.0 76.174894577291909 1.4611627903012783 2.0 79.0 1.0 2.0 82.0 1.0 2.0 84.479312715376153 1.6412858818753633 2.0 88.329032925542194 1.1923258782873332 2.0 91.152550021235129 1.2853387233990858 2.0 93.998985396877359 1.0 2.0 95.94205813664756 1.4793073674499591 2.0 99.484144820363838 2.909206198113325 2.0 12.685899096547729 1 2.0 14.523449125623356 1.8289628203305925 2.0 20.998593568956796 1 2.0 27.310747868644263 1.0 2.0 34.475805835288114 3.1485521910201868 2.0 41.961526412104917 2.2173883121851481 2.0 50.16542185170173 1.2562923886733075 2.0 53.067633100585248 1.27337874470974 2.0 61.455674006899116 2.7273511043191787 2.0 62.999539559187205 1.4556456025613316 2.0 66.17604453063727 3.1468759330758589 2.0 74.157371756309587 2.5286580059654091 2.0 75.925490702271077 3.4645548438307738 2.0 85.412884633677649 3.6170362553267053 2.0 89.11895536446022 3.0332907363276576 2.0 91.106274800916665 3.2874771202325435 2.0 97.489961447737386 2.7466159489695494 2.0 100.08324832351592 1.0 2.0 15.721327409410849 3.4693491579815752 2.0 18.154434140278259 3.8176356637576458 2.0 34.710171911402782 1.1579235654475639 2.0 41.286120356050517 4.0925449354505963 2.0 59.671707238228784 3.6328473231871152 2.0 63.009398528671696 3.9969791523307014 2.0 86.46132654096408 1.9120137951968375 2.0 20.609137857356597 4.2948037972573259 2.0 39.407300512881719 3.4196063957575689 2.0 19.669510803544075 2.4985913140509886 2.0 40.39266770000232 1 2.0 </DataArray>
<DataArray Name="forces" NumberOfComponents="3" format="ascii" type="Float32">0.0 0.0 0.0 0.0 0.0 0.0 0.0 0.0 0.0 0.0 0.0 0.0 0.0 0.0 0.0 -0.05998798730986965 0.01872010298811936 0.0 -0.014452915140754502 -0.100688232121877 0.0 -0.00075867107279137258 0.0 0.0 0.00075867107279137258 0.0 0.0 0.0 0.0 0.0 -0.028010377281690532 -0.01105031765056186 0.0 0.00020435572913394054 0.019312257721703675 0.0 -0.011335431001753944 -0.018313052503448307 0.0 0.013826024754997654 0.010987996902499995 0.0 0.0069591865222648 -0.0053226929634006678 0.0 0.0 0.0 0.0 0.0 0.0 0.0 0.0 0.0 0.0 0.0 0.0 0.0 0.0 0.0 0.0 0.0 0.0 0.0 -0.0001622493742784867 -0.00022391206710705049 0.0 0.0 0.0 0.0 0.0 0.0 0.0 0.0 0.0 0.0 0.0 0.0 0.0 0.0 0.0 0.0 0.0 0.0 0.0 0.0 0.0 0.0 0.0 0.0 0.0 0.0 0.0 0.0 0.0 0.0 0.0 0.0 0.0 0.0 0.0 0.0 0.0 -0.071764719343018715 -0.033228485955802037 0.0 0.071764719343018715 0.033228485955802037 0.0 0.064748222547982209 -0.070043138895494891 0.0 0.0 0.0 0.0 0.0 0.0 0.0 0.011436797041899758 0.011662626966107974 0.0 0.0 0.0 0.0 0.0 0.0 0.0 -0.00046191201027275062 0.00038048393781524786 0.0 0.00046191201027275062 -0.00038048393781524786 0.0 0.0001622493742784867 0.00022391206710705049 0.0 0.0 0.0 0.0 0.0 0.0 0.0 0.0 0.0 0.0 0.0 0.0 0.0 0.0 0.0 0.0 0.0 0.0 0.0 0.0 0.0 0.0 0.0 0.0 0.0 0.0 0.0 0.0 -0.0058332501844987825 -0.0054889753850800574 0.0 0.0055351129436503055 0.0089427943941626752 0.0 0.0 0.0 0.0 0.0 0.0 0.0 0.0 0.0 0.0 0.0 0.0 0.0 -0.0012447794915676066 0.01018504592294146 0.0 0.009692679902641943 0.15201126802925252 0.0 0.0084623609675644092 -0.020915683404924883 0.0 </DataArray>
<DataArray Name="radii" format="ascii" type="Float32">1 1 1 1 1 1 1 1 1 1 1 1 1 1 1 1 1 1 1 1 1 1 1 1 1 1 1 1 1 1 1 1 1 1 1 1 1 1 1 1 1 1 1 1 1 1 1 1 1 1 1 1 1 1 1 1 1 1 1 1 1 1 1 </DataArray>
</PointData>
<CellData/>
</Piece>
</UnstructuredGrid>
</VTKFile>
