<?xml version="1.0" ?>
<VTKFile byte_order="LittleEndian" type="UnstructuredGrid" version="0.1">
<UnstructuredGrid>
<Piece NumberOfCells="0" NumberOfPoints="63">
<Points>
<DataArray NumberOfComponents="3" format="ascii" type="Float32">1.0 1.0 2.0 4.0 1.0 2.0 7.0 1.0 2.0 10.0 1.0 2.0 12.691656372218308 2.5802802656193906 2.0 16.726476718071652 1.701540502963397 2.0 18.224018683955752 1.4349432382982423 2.0 22.26399720518933 1 2.0 25.0 1.0 2.0 28.234233159551675 2.5316552709162643 2.0 31.0 1.0 2.0 33.05555757985924 1.6575012402352174 2.0 36.980692996204965 1 2.0 38.743550258693382 1.5116239372917726 2.0 43.097966618106867 1 2.0 46.0 1.0 2.0 48.506312379083482 2.1812013447210137 2.0 51.619858676886814 2.4860792637747822 2.0 55.0 1.0 2.0 58.0 1.0 2.0 60.502726790800892 1.2237611967591184 2.0 64.59029138609985 1.7853048897298271 2.0 67.469110816199745 1.7232083168537586 2.0 70.0 1.0 2.0 72.465350640887735 1.7847410408970388 2.0 76.167247876728069 1.5040068513046039 2.0 79.0 1.0 2.0 82.0 1.0 2.0 84.610584812558955 1.6653209235874804 2.0 88.09014187647594 1.4930676729937975 2.0 91.147075061317381 1.3551271701759449 2.0 94.0 1.0 2.0 96.204135371104627 1.665573435539069 2.0 99.250275852293598 2.4971222032696501 2.0 13.205131968634687 1 2.0 14.602113192807733 1.7720703143884866 2.0 20.726717690201212 1.3928454419147449 2.0 27.416019399264076 1 2.0 34.491841837271366 3.0798285060266504 2.0 41.568855721511689 1.8532300938675783 2.0 50.161621454573904 1.3747343728435812 2.0 53.019649896087508 1.3501662050457923 2.0 61.608037468174189 2.5706381265684302 2.0 63.00987223554894 1.8574550216919594 2.0 65.998735121234802 2.845165714560987 2.0 74.133430877398112 2.5266589791319647 2.0 75.817602731709599 3.3619131470725359 2.0 85.55716762635025 3.3869428325376756 2.0 89.144042800769782 2.8772909004931875 2.0 90.974731813195376 3.1957874352204532 2.0 97.618385579118026 2.5615903284748329 2.0 99.925601322625795 1 2.0 15.688359758027932 2.9154838139769317 2.0 18.754638483997059 3.3082083769681363 2.0 34.922664908609228 1.2482421336820539 2.0 41.142574490623254 3.5994424459916932 2.0 60.192520206963259 3.3532955673005476 2.0 62.83986601829654 3.830390418880445 2.0 86.536593011504394 1.9952314556369872 2.0 20.329240873178478 3.9134575116133719 2.0 39.48250780080118 3.1275754461881871 2.0 19.633015970685335 1.991592885951875 2.0 40.280401087113148 1.0868745407851372 2.0 </DataArray>
</Points>
<Cells>
<DataArray Name="connectivity" format="ascii" type="Int32">0</DataArray>
<DataArray Name="offsets" format="ascii" type="Int32">0</DataArray>
<DataArray Name="types" format="ascii" type="UInt8">1</DataArray>
</Cells>
<PointData>
<DataArray Name="Points" NumberOfComponents="3" format="ascii" type="Float32">1.0 1.0 2.0 4.0 1.0 2.0 7.0 1.0 2.0 10.0 1.0 2.0 12.691656372218308 2.5802802656193906 2.0 16.726476718071652 1.701540502963397 2.0 18.224018683955752 1.4349432382982423 2.0 22.26399720518933 1 2.0 25.0 1.0 2.0 28.234233159551675 2.5316552709162643 2.0 31.0 1.0 2.0 33.05555757985924 1.6575012402352174 2.0 36.980692996204965 1 2.0 38.743550258693382 1.5116239372917726 2.0 43.097966618106867 1 2.0 46.0 1.0 2.0 48.506312379083482 2.1812013447210137 2.0 51.619858676886814 2.4860792637747822 2.0 55.0 1.0 2.0 58.0 1.0 2.0 60.502726790800892 1.2237611967591184 2.0 64.59029138609985 1.7853048897298271 2.0 67.469110816199745 1.7232083168537586 2.0 70.0 1.0 2.0 72.465350640887735 1.7847410408970388 2.0 76.167247876728069 1.5040068513046039 2.0 79.0 1.0 2.0 82.0 1.0 2.0 84.610584812558955 1.6653209235874804 2.0 88.09014187647594 1.4930676729937975 2.0 91.147075061317381 1.3551271701759449 2.0 94.0 1.0 2.0 96.204135371104627 1.665573435539069 2.0 99.250275852293598 2.4971222032696501 2.0 13.205131968634687 1 2.0 14.602113192807733 1.7720703143884866 2.0 20.726717690201212 1.3928454419147449 2.0 27.416019399264076 1 2.0 34.491841837271366 3.0798285060266504 2.0 41.568855721511689 1.8532300938675783 2.0 50.161621454573904 1.3747343728435812 2.0 53.019649896087508 1.3501662050457923 2.0 61.608037468174189 2.5706381265684302 2.0 63.00987223554894 1.8574550216919594 2.0 65.998735121234802 2.845165714560987 2.0 74.133430877398112 2.5266589791319647 2.0 75.817602731709599 3.3619131470725359 2.0 85.55716762635025 3.3869428325376756 2.0 89.144042800769782 2.8772909004931875 2.0 90.974731813195376 3.1957874352204532 2.0 97.618385579118026 2.5615903284748329 2.0 99.925601322625795 1 2.0 15.688359758027932 2.9154838139769317 2.0 18.754638483997059 3.3082083769681363 2.0 34.922664908609228 1.2482421336820539 2.0 41.142574490623254 3.5994424459916932 2.0 60.192520206963259 3.3532955673005476 2.0 62.83986601829654 3.830390418880445 2.0 86.536593011504394 1.9952314556369872 2.0 20.329240873178478 3.9134575116133719 2.0 39.48250780080118 3.1275754461881871 2.0 19.633015970685335 1.991592885951875 2.0 40.280401087113148 1.0868745407851372 2.0 </DataArray>
<DataArray Name="forces" NumberOfComponents="3" format="ascii" type="Float32">0.0 0.0 0.0 0.0 0.0 0.0 0.0 0.0 0.0 0.0 0.0 0.0 -0.12521165967188319 0.36106870753827491 0.0 -0.146869146495961 -0.2638716491008955 0.0 -0.043687847582027539 -0.37572671775700472 0.0 0.3975400513065579 -0.11208292800512924 0.0 0.0 0.0 0.0 0.1472962217331962 0.28303289644627577 0.0 0.0 0.0 0.0 -0.13995827865838437 0.025085969847617282 0.0 -0.10781702663148009 -0.031249458394682066 0.0 -0.4585861009284174 -0.096913212014356515 0.0 0.21521879496449325 -0.11477102753039563 0.0 0.0 0.0 0.0 -0.18364487203116459 0.086413844050091088 0.0 -0.045783910307349379 0.27982656468516753 0.0 0.0 0.0 0.0 0.0 0.0 0.0 -0.18953740634693475 -0.23027644885820872 0.0 0.25685679672078643 -0.16749838459241873 0.0 0.15727196309652003 -0.11553182369450044 0.0 0.0 0.0 0.0 -0.19892901106076086 -0.088551104818646267 0.0 0.031172310965947917 -0.15719103866381287 0.0 0.0 0.0 0.0 0.0 0.0 0.0 -0.072164300697355202 -0.077005541111951917 0.0 0.20956475997477506 -0.36766080255315958 0.0 0.022520897297710903 -0.21311336434850214 0.0 0.0 0.0 0.0 -0.33236719629073153 -0.20146807709252296 0.0 0.24149711041824953 0.33808673623158686 0.0 -0.24098872029657714 -0.57381219085248614 0.0 -0.0049105705042167269 -0.13850963919614093 0.0 0.32870217933785506 -0.26374149719958412 0.0 -0.1472962217331962 -0.28303289644627577 0.0 -0.035935129269582228 0.17700838246419109 0.0 0.3576984181216068 0.18773383567954866 0.0 0.020735670466816486 -0.20209776713554506 0.0 0.20869311187169748 -0.16414264159971356 0.0 -0.02317098818430699 -0.00029820028615182292 0.0 -0.054259674869327743 -0.26101906882423864 0.0 0.046941172947247117 0.25734674436079197 0.0 0.079200507528188552 0.030998643095192305 0.0 0.088556192566624392 0.21474350038726683 0.0 -0.17225402082207172 0.35960637004582302 0.0 0.04634938181219414 0.21315483984105063 0.0 0.12940323422722111 0.23940332560763192 0.0 -0.079077135201476023 0.22249072008705467 0.0 0.16994722107395802 -0.35910937922611857 0.0 0.028695071935929739 0.69780803377066625 0.0 -0.61690521530673292 0.3691460809997355 0.0 0.17589340792796659 -0.20209435231180839 0.0 0.28620140715186054 0.31167230475206997 0.0 -0.38802412266482184 0.21402966918854352 0.0 0.19392225930083778 0.30324751270618289 0.0 -0.16341995179247429 -0.15438482748089197 0.0 0.39980766381099947 0.17705157879905786 0.0 -0.22852623630145094 0.14987356531097115 0.0 0.023828193466056413 0.12267022100350605 0.0 -0.064189256376612158 -0.40634600780315555 0.0 </DataArray>
<DataArray Name="radii" format="ascii" type="Float32">1 1 1 1 1 1 1 1 1 1 1 1 1 1 1 1 1 1 1 1 1 1 1 1 1 1 1 1 1 1 1 1 1 1 1 1 1 1 1 1 1 1 1 1 1 1 1 1 1 1 1 1 1 1 1 1 1 1 1 1 1 1 1 </DataArray>
</PointData>
<CellData/>
</Piece>
</UnstructuredGrid>
</VTKFile>
