<?xml version="1.0" ?>
<VTKFile byte_order="LittleEndian" type="UnstructuredGrid" version="0.1">
<UnstructuredGrid>
<Piece NumberOfCells="0" NumberOfPoints="54">
<Points>
<DataArray NumberOfComponents="3" format="ascii" type="Float32">1.7057674352055545 1.8680997373034451 2.0 4.0433405190646319 1 2.0 7.0 1.0 2.0 9.8112645980892577 2.2737464788300428 2.0 13.0 1.0 2.0 16.0 1.0 2.0 19.0 1.0 2.0 22.0 1.0 2.0 24.765577708846291 1.9355411422971545 2.0 28.0 1.0 2.0 31.0 1.0 2.0 34.0 1.0 2.0 37.0 1.0 2.0 39.899145488349937 1 2.0 43.337517716980869 2.0411487307197378 2.0 45.55607544095372 1.6846138591079565 2.0 49.03351884645415 1 2.0 52.0 1.0 2.0 54.764430366273238 1 2.0 58.322364685886349 2.0152430279584661 2.0 60.669929382315487 1.7865761371114053 2.0 64.112175569003952 1.6104119349643362 2.0 66.861109200938344 1.8395197057498727 2.0 70.0 1.0 2.0 73.0 1.0 2.0 76.0 1.0 2.0 79.0 1.0 2.0 82.0 1.0 2.0 85.0 1.0 2.0 87.968584774947004 1.0 2.0 91.380474208413744 2.1030583239003104 2.0 94.0 1.0 2.0 97.050170728533374 2.3092133309957208 2.0 98.732078562060352 2.2643327844215859 2.0 2.8812897927127659 2.554256429740617 2.0 10.545107529245691 1.2093626039203611 2.0 26.195440408230631 2.3287090267189803 2.0 42.076526052835987 2.1702782672441026 2.0 46.285182674578721 2.229535096917723 2.0 57.089877995396968 2.0594985983313716 2.0 61.766408276797101 2.3561822077731507 2.0 63.886521113057142 2.7469865205204353 2.0 67.983565780924266 2.7931509208962182 2.0 89.700632064135661 2.1965993510842958 2.0 96.443079924846444 1.2501113843708378 2.0 100.2941796718371 2.0777105015111235 2.0 41.534648566281923 1.0643117178911279 2.0 47.366371510989566 2.5649095505387254 2.0 55.733018500260833 2.2128099409935316 2.0 62.133349785373809 3.2589954780787838 2.0 90.300178291779901 1.0323784443657913 2.0 99.105956743708461 1.1870969789804986 2.0 48.210350491046256 3.1404139374129487 2.0 56.167816612492679 1.9796417474728674 2.0 </DataArray>
</Points>
<Cells>
<DataArray Name="connectivity" format="ascii" type="Int32">0</DataArray>
<DataArray Name="offsets" format="ascii" type="Int32">0</DataArray>
<DataArray Name="types" format="ascii" type="UInt8">1</DataArray>
</Cells>
<PointData>
<DataArray Name="Points" NumberOfComponents="3" format="ascii" type="Float32">1.7057674352055545 1.8680997373034451 2.0 4.0433405190646319 1 2.0 7.0 1.0 2.0 9.8112645980892577 2.2737464788300428 2.0 13.0 1.0 2.0 16.0 1.0 2.0 19.0 1.0 2.0 22.0 1.0 2.0 24.765577708846291 1.9355411422971545 2.0 28.0 1.0 2.0 31.0 1.0 2.0 34.0 1.0 2.0 37.0 1.0 2.0 39.899145488349937 1 2.0 43.337517716980869 2.0411487307197378 2.0 45.55607544095372 1.6846138591079565 2.0 49.03351884645415 1 2.0 52.0 1.0 2.0 54.764430366273238 1 2.0 58.322364685886349 2.0152430279584661 2.0 60.669929382315487 1.7865761371114053 2.0 64.112175569003952 1.6104119349643362 2.0 66.861109200938344 1.8395197057498727 2.0 70.0 1.0 2.0 73.0 1.0 2.0 76.0 1.0 2.0 79.0 1.0 2.0 82.0 1.0 2.0 85.0 1.0 2.0 87.968584774947004 1.0 2.0 91.380474208413744 2.1030583239003104 2.0 94.0 1.0 2.0 97.050170728533374 2.3092133309957208 2.0 98.732078562060352 2.2643327844215859 2.0 2.8812897927127659 2.554256429740617 2.0 10.545107529245691 1.2093626039203611 2.0 26.195440408230631 2.3287090267189803 2.0 42.076526052835987 2.1702782672441026 2.0 46.285182674578721 2.229535096917723 2.0 57.089877995396968 2.0594985983313716 2.0 61.766408276797101 2.3561822077731507 2.0 63.886521113057142 2.7469865205204353 2.0 67.983565780924266 2.7931509208962182 2.0 89.700632064135661 2.1965993510842958 2.0 96.443079924846444 1.2501113843708378 2.0 100.2941796718371 2.0777105015111235 2.0 41.534648566281923 1.0643117178911279 2.0 47.366371510989566 2.5649095505387254 2.0 55.733018500260833 2.2128099409935316 2.0 62.133349785373809 3.2589954780787838 2.0 90.300178291779901 1.0323784443657913 2.0 99.105956743708461 1.1870969789804986 2.0 48.210350491046256 3.1404139374129487 2.0 56.167816612492679 1.9796417474728674 2.0 </DataArray>
<DataArray Name="forces" NumberOfComponents="3" format="ascii" type="Float32">-0.59828750074110082 -0.34788569045393869 0.0 0.036092982010864576 -0.046978772114824451 0.0 0.0 0.0 0.0 -0.43502368962674193 0.63096908177986388 0.0 0.0 0.0 0.0 0.0 0.0 0.0 0.0 0.0 0.0 0.0 0.0 0.0 -0.54032920690030761 -0.1485737695373047 0.0 0.0 0.0 0.0 0.0 0.0 0.0 0.0 0.0 0.0 0.0 0.0 0.0 -0.37565003527522106 -0.021137563915564369 0.0 0.77814355273338465 -0.061851170502624897 0.0 -1.0365941546500728 -0.72042799875443109 0.0 0.30763113893370136 -0.69183369677139306 0.0 0.0 0.0 0.0 -1.3701997869048135 -1.1393919496433571 0.0 1.6359638069599878 -0.01690782439083276 0.0 -0.69579583409064849 -0.38001781814162083 0.0 0.18126767521739451 -0.89028355524623493 0.0 -0.43538187066361256 -0.36989737489786917 0.0 0.0 0.0 0.0 0.0 0.0 0.0 0.0 0.0 0.0 0.0 0.0 0.0 0.0 0.0 0.0 0.0 0.0 0.0 0.0 0.0 0.0 0.76259393370384232 0.35639360291658956 0.0 0.0 0.0 0.0 0.13069367593802766 0.73321596582759485 0.0 -0.51202098768468396 0.92967611047257026 0.0 0.56219451873023629 0.39486446256876312 0.0 0.43502368962674193 -0.63096908177986388 0.0 0.54032920690030761 0.1485737695373047 0.0 -0.39715146965268711 0.77930489975330808 0.0 -0.84135591965255152 -0.051239553435661722 0.0 2.2337360605069816 0.095043280261523561 0.0 0.26171796258578778 -0.61387891204068068 0.0 -0.023028658597201296 0.84504538421761366 0.0 0.43538187066361256 0.36989737489786917 0.0 -0.72837703364242756 0.69470596962993647 0.0 -0.42300131835614208 -0.72422905717583619 0.0 0.95604156554496167 0.29142891109340946 0.0 -0.0053420478054764797 -0.69631616533511886 0.0 -1.0171036221790364 -0.8919037717436048 0.0 -2.9142664364007249 1.5880105119822716 0.0 0.27583885488466753 1.0391349012109228 0.0 -0.034216900061414757 -1.051099572546526 0.0 -0.1517129354421633 -1.2300919302177384 0.0 2.5874225575479595 2.3554050207050907 0.0 0.4147663558385688 -0.5267540182096051 0.0 </DataArray>
<DataArray Name="radii" format="ascii" type="Float32">1 1 1 1 1 1 1 1 1 1 1 1 1 1 1 1 1 1 1 1 1 1 1 1 1 1 1 1 1 1 1 1 1 1 1 1 1 1 1 1 1 1 1 1 1 1 1 1 1 1 1 1 2 2 </DataArray>
</PointData>
<CellData/>
</Piece>
</UnstructuredGrid>
</VTKFile>
