<?xml version="1.0" ?>
<VTKFile byte_order="LittleEndian" type="UnstructuredGrid" version="0.1">
<UnstructuredGrid>
<Piece NumberOfCells="0" NumberOfPoints="63">
<Points>
<DataArray NumberOfComponents="3" format="ascii" type="Float32">1.0 1.0 2.0 4.0 1.0 2.0 7.0 1.0 2.0 10.0 1.0 2.0 12.674587498358843 2.6328116901013154 2.0 16.692236182697737 1.665284405649988 2.0 18.224988822403173 1.3838235604116709 2.0 22.329361904416736 1 2.0 25.0 1.0 2.0 28.254498870888998 2.5695916698076378 2.0 31.0 1.0 2.0 33.041436512022884 1.6605964964731932 2.0 36.95492163833881 1 2.0 38.690374412864756 1.5036185359774665 2.0 43.133451530128234 1 2.0 46.0 1.0 2.0 48.483026945507525 2.1925460134495967 2.0 51.616473118924993 2.5228509522610891 2.0 55.0 1.0 2.0 58.0 1.0 2.0 60.476047741469792 1.1912514266203791 2.0 64.627485666997515 1.7589012264372692 2.0 67.488635514662406 1.7083101653451314 2.0 70.0 1.0 2.0 72.439345238548611 1.7731745262509722 2.0 76.170552892511409 1.4864450183463522 2.0 79.0 1.0 2.0 82.0 1.0 2.0 84.60041669522515 1.6590041496791477 2.0 88.121458783199529 1.4408305985020804 2.0 91.14937717586561 1.3305401276275535 2.0 94.0 1.0 2.0 96.15921303601111 1.637112296989583 2.0 99.286105406544735 2.547967846360597 2.0 13.164504190171536 1 2.0 14.612268930217306 1.753914656188243 2.0 20.769183855686443 1.3505170712665968 2.0 27.395753687926753 1 2.0 34.487415721562392 3.0986455419616226 2.0 41.611475011694552 1.882710916009537 2.0 50.163284944573554 1.3469112902068572 2.0 53.044657397625635 1.3298729304676267 2.0 61.600042416369988 2.5767682190626187 2.0 63.004148351628672 1.8257364744621014 2.0 66.010163777448724 2.883356417415778 2.0 74.141876167964014 2.5295166696099178 2.0 75.83185782769948 3.388183804198901 2.0 85.531931654215057 3.4317984994750668 2.0 89.146969454036196 2.9071201998476042 2.0 90.995234829803948 3.2243420305307504 2.0 97.603476585618736 2.5924151146581806 2.0 99.949603096967465 1 2.0 15.693179306575761 3.0154838139769318 2.0 18.671496974867765 3.3548607391036702 2.0 34.941212092154558 1.226329841509106 2.0 41.177782731987165 3.6437906391275918 2.0 60.1378784492249 3.3835076879440122 2.0 62.866758125516228 3.8613876350577829 2.0 86.514948409826602 1.9751327849833236 2.0 20.376941716323696 3.9317928667696034 2.0 39.454605104898405 3.1484577954350494 2.0 19.636617535248483 2.0230558899004567 2.0 40.273938543142556 1.0274483117120541 2.0 </DataArray>
</Points>
<Cells>
<DataArray Name="connectivity" format="ascii" type="Int32">0</DataArray>
<DataArray Name="offsets" format="ascii" type="Int32">0</DataArray>
<DataArray Name="types" format="ascii" type="UInt8">1</DataArray>
</Cells>
<PointData>
<DataArray Name="Points" NumberOfComponents="3" format="ascii" type="Float32">1.0 1.0 2.0 4.0 1.0 2.0 7.0 1.0 2.0 10.0 1.0 2.0 12.674587498358843 2.6328116901013154 2.0 16.692236182697737 1.665284405649988 2.0 18.224988822403173 1.3838235604116709 2.0 22.329361904416736 1 2.0 25.0 1.0 2.0 28.254498870888998 2.5695916698076378 2.0 31.0 1.0 2.0 33.041436512022884 1.6605964964731932 2.0 36.95492163833881 1 2.0 38.690374412864756 1.5036185359774665 2.0 43.133451530128234 1 2.0 46.0 1.0 2.0 48.483026945507525 2.1925460134495967 2.0 51.616473118924993 2.5228509522610891 2.0 55.0 1.0 2.0 58.0 1.0 2.0 60.476047741469792 1.1912514266203791 2.0 64.627485666997515 1.7589012264372692 2.0 67.488635514662406 1.7083101653451314 2.0 70.0 1.0 2.0 72.439345238548611 1.7731745262509722 2.0 76.170552892511409 1.4864450183463522 2.0 79.0 1.0 2.0 82.0 1.0 2.0 84.60041669522515 1.6590041496791477 2.0 88.121458783199529 1.4408305985020804 2.0 91.14937717586561 1.3305401276275535 2.0 94.0 1.0 2.0 96.15921303601111 1.637112296989583 2.0 99.286105406544735 2.547967846360597 2.0 13.164504190171536 1 2.0 14.612268930217306 1.753914656188243 2.0 20.769183855686443 1.3505170712665968 2.0 27.395753687926753 1 2.0 34.487415721562392 3.0986455419616226 2.0 41.611475011694552 1.882710916009537 2.0 50.163284944573554 1.3469112902068572 2.0 53.044657397625635 1.3298729304676267 2.0 61.600042416369988 2.5767682190626187 2.0 63.004148351628672 1.8257364744621014 2.0 66.010163777448724 2.883356417415778 2.0 74.141876167964014 2.5295166696099178 2.0 75.83185782769948 3.388183804198901 2.0 85.531931654215057 3.4317984994750668 2.0 89.146969454036196 2.9071201998476042 2.0 90.995234829803948 3.2243420305307504 2.0 97.603476585618736 2.5924151146581806 2.0 99.949603096967465 1 2.0 15.693179306575761 3.0154838139769318 2.0 18.671496974867765 3.3548607391036702 2.0 34.941212092154558 1.226329841509106 2.0 41.177782731987165 3.6437906391275918 2.0 60.1378784492249 3.3835076879440122 2.0 62.866758125516228 3.8613876350577829 2.0 86.514948409826602 1.9751327849833236 2.0 20.376941716323696 3.9317928667696034 2.0 39.454605104898405 3.1484577954350494 2.0 19.636617535248483 2.0230558899004567 2.0 40.273938543142556 1.0274483117120541 2.0 </DataArray>
<DataArray Name="forces" NumberOfComponents="3" format="ascii" type="Float32">0.0 0.0 0.0 0.0 0.0 0.0 0.0 0.0 0.0 0.0 0.0 0.0 -0.10457081732523492 0.32182872980151572 0.0 -0.2097713533525612 -0.22211950010891923 0.0 0.005943460078311591 -0.31317979979314498 0.0 0.40045055571359417 -0.10233348847137147 0.0 0.0 0.0 0.0 0.12415593528135738 0.23241370644070791 0.0 0.0 0.0 0.0 -0.086511366673087453 0.018962790240357852 0.0 -0.15788575027463425 -0.045822274393191087 0.0 -0.32577671532659119 -0.049044322744779434 0.0 0.21739490744029263 -0.12130439832364957 0.0 0.0 0.0 0.0 -0.14265597372495592 0.069502024035062115 0.0 -0.020741295886571032 0.22527821994008773 0.0 0.0 0.0 0.0 0.0 0.0 0.0 -0.16344663490885325 -0.19916798626867063 0.0 0.22786719178524767 -0.16175950877697312 0.0 0.11961619103170104 -0.091272095202020953 0.0 0.0 0.0 0.0 -0.15931960127327102 -0.070861141754400475 0.0 0.020247861961024131 -0.10759088392672941 0.0 0.0 0.0 0.0 0.0 0.0 0.0 -0.06229399484752543 -0.038699109026856277 0.0 0.19186002305404015 -0.32002542284001873 0.0 0.014103683808701003 -0.15063015615819184 0.0 0.0 0.0 0.0 -0.27521237403028781 -0.17436443344949989 0.0 0.21950632498013281 0.31150095192128613 0.0 -0.24890218505215439 -0.51718283145374233 0.0 0.062218150430035035 -0.11122889727281915 0.0 0.26016488668331489 -0.25932069984031203 0.0 -0.12415593528135738 -0.23241370644070791 0.0 -0.027116173045416067 0.11528076448155894 0.0 0.26110299044551627 0.18061142710332495 0.0 0.010191211810934658 -0.17045544514446795 0.0 0.15320605780059229 -0.12432479883068191 0.0 -0.048980917464535478 0.037555423261924931 0.0 -0.035066825424163013 -0.19432063506381689 0.0 0.070016565302325945 0.23397167526293874 0.0 0.051739262021425314 0.017507366414591378 0.0 0.087332477290821581 0.1609446592665385 0.0 -0.15460576098353448 0.27480393797102409 0.0 0.017929860318641744 0.18274633929647738 0.0 0.12560976324760956 0.17493698732405855 0.0 -0.091338517617144233 0.18884509380101586 0.0 0.14704456666729923 -0.32598161227280209 0.0 0.029526501568563901 0.61264040138917519 0.0 -0.50935847525072875 0.28581121864466641 0.0 0.11362753971850352 -0.13424355472191679 0.0 0.21569991121394733 0.27169494843661685 0.0 -0.33475748393440502 0.18509165717830342 0.0 0.1647519136126821 0.18990146960831447 0.0 -0.13260357459793251 -0.12313257656649318 0.0 0.2922346369108933 0.11232979342526839 0.0 -0.1709431881771612 0.1279337082454659 0.0 0.022064639595966412 0.19275507367968342 0.0 -0.039592155321369615 -0.36406908832378759 0.0 </DataArray>
<DataArray Name="radii" format="ascii" type="Float32">1 1 1 1 1 1 1 1 1 1 1 1 1 1 1 1 1 1 1 1 1 1 1 1 1 1 1 1 1 1 1 1 1 1 1 1 1 1 1 1 1 1 1 1 1 1 1 1 1 1 1 1 1 1 1 1 1 1 1 1 1 1 1 </DataArray>
</PointData>
<CellData/>
</Piece>
</UnstructuredGrid>
</VTKFile>
