<?xml version="1.0" ?>
<VTKFile byte_order="LittleEndian" type="UnstructuredGrid" version="0.1">
<UnstructuredGrid>
<Piece NumberOfCells="0" NumberOfPoints="46">
<Points>
<DataArray NumberOfComponents="3" format="ascii" type="Float32">1.8568489010013498 1.9551009983963379 2.0 4.0362822535546723 1 2.0 7.0 1.0 2.0 9.9209844309753219 2.1146061288675844 2.0 13.0 1.0 2.0 16.0 1.0 2.0 19.0 1.0 2.0 22.0 1.0 2.0 24.901857253381966 1.9730137893129356 2.0 28.0 1.0 2.0 31.0 1.0 2.0 34.0 1.0 2.0 37.0 1.0 2.0 39.977663691967436 1 2.0 43.125839763924596 2.0323515389813092 2.0 45.850275335054185 1.8693495072171706 2.0 49.000326685012666 1 2.0 52.0 1.0 2.0 54.967452822906516 1 2.0 58.097634853535695 2.0159114901374489 2.0 60.855130875482175 1.9108933278695082 2.0 64.064708519298094 1.8334404971623992 2.0 66.970919372728801 1.9328136553129633 2.0 70.0 1.0 2.0 73.0 1.0 2.0 76.0 1.0 2.0 79.0 1.0 2.0 82.0 1.0 2.0 85.0 1.0 2.0 87.968584774947004 1 2.0 91.149097213661108 2.0057179352749501 2.0 94.0 1.0 2.0 96.976931459029345 2.1282766291915935 2.0 98.934026259842184 2.0273761616544226 2.0 2.7372665924269293 2.4587243094955591 2.0 10.435387696359626 1.3685029538828188 2.0 26.059160863694956 2.2912363797031996 2.0 42.161010022481136 2.0063806754264371 2.0 46.322560477494136 2.1782640999618037 2.0 56.881495557163781 2.0156517358191528 2.0 61.73045708434379 2.4946350592072548 2.0 63.913354452843727 2.5295306014207526 2.0 67.873755609133809 2.6998569713331273 2.0 89.916588947006929 2.0155341273754415 2.0 96.551139883284662 1.4297118194700251 2.0 100.00895735326573 1.9973264204486352 2.0 </DataArray>
</Points>
<Cells>
<DataArray Name="connectivity" format="ascii" type="Int32">0</DataArray>
<DataArray Name="offsets" format="ascii" type="Int32">0</DataArray>
<DataArray Name="types" format="ascii" type="UInt8">1</DataArray>
</Cells>
<PointData>
<DataArray Name="Points" NumberOfComponents="3" format="ascii" type="Float32">1.8568489010013498 1.9551009983963379 2.0 4.0362822535546723 1 2.0 7.0 1.0 2.0 9.9209844309753219 2.1146061288675844 2.0 13.0 1.0 2.0 16.0 1.0 2.0 19.0 1.0 2.0 22.0 1.0 2.0 24.901857253381966 1.9730137893129356 2.0 28.0 1.0 2.0 31.0 1.0 2.0 34.0 1.0 2.0 37.0 1.0 2.0 39.977663691967436 1 2.0 43.125839763924596 2.0323515389813092 2.0 45.850275335054185 1.8693495072171706 2.0 49.000326685012666 1 2.0 52.0 1.0 2.0 54.967452822906516 1 2.0 58.097634853535695 2.0159114901374489 2.0 60.855130875482175 1.9108933278695082 2.0 64.064708519298094 1.8334404971623992 2.0 66.970919372728801 1.9328136553129633 2.0 70.0 1.0 2.0 73.0 1.0 2.0 76.0 1.0 2.0 79.0 1.0 2.0 82.0 1.0 2.0 85.0 1.0 2.0 87.968584774947004 1 2.0 91.149097213661108 2.0057179352749501 2.0 94.0 1.0 2.0 96.976931459029345 2.1282766291915935 2.0 98.934026259842184 2.0273761616544226 2.0 2.7372665924269293 2.4587243094955591 2.0 10.435387696359626 1.3685029538828188 2.0 26.059160863694956 2.2912363797031996 2.0 42.161010022481136 2.0063806754264371 2.0 46.322560477494136 2.1782640999618037 2.0 56.881495557163781 2.0156517358191528 2.0 61.73045708434379 2.4946350592072548 2.0 63.913354452843727 2.5295306014207526 2.0 67.873755609133809 2.6998569713331273 2.0 89.916588947006929 2.0155341273754415 2.0 96.551139883284662 1.4297118194700251 2.0 100.00895735326573 1.9973264204486352 2.0 </DataArray>
<DataArray Name="forces" NumberOfComponents="3" format="ascii" type="Float32">-0.93984147460381051 -0.53555687907818617 0.0 0.02637353449776739 -0.028246454590996097 0.0 0.0 0.0 0.0 -0.68157943826007106 0.98857961663648819 0.0 0.0 0.0 0.0 0.0 0.0 0.0 0.0 0.0 0.0 0.0 0.0 0.0 -0.84656832741823673 -0.23278002737805906 0.0 0.0 0.0 0.0 0.0 0.0 0.0 0.0 0.0 0.0 0.0 0.0 0.0 -0.50126571477323301 -0.22401187309138762 0.0 2.2082458167293755 0.080435674062860618 0.0 -2.2379954369231894 -1.4639914742581719 0.0 0.0073313815399023933 -0.0029375814817778744 0.0 0.0 0.0 0.0 -0.73041542791369318 -0.37755215215481536 0.0 1.922352120747485 0.026299898138963985 0.0 -1.7740033189390085 -1.0911609538970783 0.0 0.93613273297872279 -1.524961148811709 0.0 -0.68214062339946424 -0.57954187555412728 0.0 0.0 0.0 0.0 0.0 0.0 0.0 0.0 0.0 0.0 0.0 0.0 0.0 0.0 0.0 0.0 0.0 0.0 0.0 -0.70501244959538389 -0.35785617494098898 0.0 1.9058937800750582 0.0092432595532761595 0.0 0.0 0.0 0.0 0.64268449568828012 1.1070567823630031 0.0 -2.1137915682836721 0.059095087942723508 0.0 0.91346794010604315 0.56380333366918223 0.0 0.68157943826007106 -0.98857961663648819 0.0 0.84656832741823673 0.23278002737805906 0.0 -1.7204904823950207 0.14319348675288596 0.0 2.2441744358221651 1.4673117680155907 0.0 -1.1919366928337918 0.35125225401585136 0.0 0.33578318985849209 1.2241027063763663 0.0 0.50208739610179376 1.392019396332421 0.0 0.68214062339946424 0.57954187555412728 0.0 -1.2008813304796742 0.34861291538771283 0.0 -0.67666200603319782 -1.106152081492628 0.0 2.1477690786285897 -0.059999788813098635 0.0 </DataArray>
<DataArray Name="radii" format="ascii" type="Float32">1 1 1 1 1 1 1 1 1 1 1 1 1 1 1 1 1 1 1 1 1 1 1 1 1 1 1 1 1 1 1 1 1 1 1 1 1 2 2 2 2 1 1 2 1 2 </DataArray>
</PointData>
<CellData/>
</Piece>
</UnstructuredGrid>
</VTKFile>
