<?xml version="1.0" ?>
<VTKFile byte_order="LittleEndian" type="UnstructuredGrid" version="0.1">
<UnstructuredGrid>
<Piece NumberOfCells="0" NumberOfPoints="63">
<Points>
<DataArray NumberOfComponents="3" format="ascii" type="Float32">1.0 1.0 2.0 4.0 1.0 2.0 7.0 1.0 2.0 10.0 1.0 2.0 12.595971630392203 2.9807988079216461 2.0 16.515884211666059 1.5814008553344461 2.0 18.3419778353372 1 2.0 22.895995397698144 1.0 2.0 25.0 1.0 2.0 28.339504690171488 2.7193027168559385 2.0 31.0 1.0 2.0 32.941565134264323 1.6855432507235859 2.0 36.715437929074241 1 2.0 38.501985754871846 1.5841064672358636 2.0 43.464117314971794 1 2.0 46.0 1.0 2.0 48.416279059710128 2.2274306428623909 2.0 51.607772781243604 2.6426923009903254 2.0 55.050335613390978 1 2.0 58.0 1.0 2.0 60.357236073306098 1.0364630242838537 2.0 64.967008055286641 1.5434034831380117 2.0 67.539090038726712 1.6657713016767373 2.0 70.0 1.0 2.0 72.325875090850943 1.7229443783086817 2.0 76.174894577291909 1.4611627903012783 2.0 79.0 1.0 2.0 82.0 1.0 2.0 84.479312715376153 1.6412858818753633 2.0 88.329032925542194 1.1923258782873332 2.0 91.152550021235129 1.2853387233990858 2.0 94.0 1.0 2.0 95.941043533524919 1.4790569595231602 2.0 99.484879081789714 2.9068634031172667 2.0 12.802766641482556 1 2.0 14.591770440557045 1.7725148197266334 2.0 20.938070866179121 1 2.0 27.310747868644263 1 2.0 34.476263592465244 3.1459315208377876 2.0 41.87001385721809 2.1328199406615869 2.0 50.16542185170173 1.2562923886733075 2.0 53.067633100585248 1.27337874470974 2.0 61.465437245338904 2.7131648335142993 2.0 62.997751861168453 1.4967611627157016 2.0 66.163027173867349 3.1295554950948588 2.0 74.157371756309587 2.5286580059654091 2.0 75.925490702271077 3.4645548438307738 2.0 85.412884633677649 3.6170362553267053 2.0 89.11895536446022 3.0332907363276576 2.0 91.106274800916665 3.2874771202325435 2.0 97.489961447737386 2.7466159489695494 2.0 100.08251406209004 1 2.0 15.727741043476598 3.4160292288261016 2.0 18.250439443384565 3.7286606506415616 2.0 34.820084207853569 1.1775507288781053 2.0 41.263911870452404 3.9995280969722158 2.0 59.715939377485761 3.6101685901592009 2.0 63.00567021813832 3.9939313617624088 2.0 86.46132654096408 1.9120137951968375 2.0 20.529222185868051 4.138911769512668 2.0 39.397100848853896 3.3244375681930221 2.0 19.655527220925951 2.3873853983842697 2.0 40.316132788768918 1 2.0 </DataArray>
</Points>
<Cells>
<DataArray Name="connectivity" format="ascii" type="Int32">0</DataArray>
<DataArray Name="offsets" format="ascii" type="Int32">0</DataArray>
<DataArray Name="types" format="ascii" type="UInt8">1</DataArray>
</Cells>
<PointData>
<DataArray Name="Points" NumberOfComponents="3" format="ascii" type="Float32">1.0 1.0 2.0 4.0 1.0 2.0 7.0 1.0 2.0 10.0 1.0 2.0 12.595971630392203 2.9807988079216461 2.0 16.515884211666059 1.5814008553344461 2.0 18.3419778353372 1 2.0 22.895995397698144 1.0 2.0 25.0 1.0 2.0 28.339504690171488 2.7193027168559385 2.0 31.0 1.0 2.0 32.941565134264323 1.6855432507235859 2.0 36.715437929074241 1 2.0 38.501985754871846 1.5841064672358636 2.0 43.464117314971794 1 2.0 46.0 1.0 2.0 48.416279059710128 2.2274306428623909 2.0 51.607772781243604 2.6426923009903254 2.0 55.050335613390978 1 2.0 58.0 1.0 2.0 60.357236073306098 1.0364630242838537 2.0 64.967008055286641 1.5434034831380117 2.0 67.539090038726712 1.6657713016767373 2.0 70.0 1.0 2.0 72.325875090850943 1.7229443783086817 2.0 76.174894577291909 1.4611627903012783 2.0 79.0 1.0 2.0 82.0 1.0 2.0 84.479312715376153 1.6412858818753633 2.0 88.329032925542194 1.1923258782873332 2.0 91.152550021235129 1.2853387233990858 2.0 94.0 1.0 2.0 95.941043533524919 1.4790569595231602 2.0 99.484879081789714 2.9068634031172667 2.0 12.802766641482556 1 2.0 14.591770440557045 1.7725148197266334 2.0 20.938070866179121 1 2.0 27.310747868644263 1 2.0 34.476263592465244 3.1459315208377876 2.0 41.87001385721809 2.1328199406615869 2.0 50.16542185170173 1.2562923886733075 2.0 53.067633100585248 1.27337874470974 2.0 61.465437245338904 2.7131648335142993 2.0 62.997751861168453 1.4967611627157016 2.0 66.163027173867349 3.1295554950948588 2.0 74.157371756309587 2.5286580059654091 2.0 75.925490702271077 3.4645548438307738 2.0 85.412884633677649 3.6170362553267053 2.0 89.11895536446022 3.0332907363276576 2.0 91.106274800916665 3.2874771202325435 2.0 97.489961447737386 2.7466159489695494 2.0 100.08251406209004 1 2.0 15.727741043476598 3.4160292288261016 2.0 18.250439443384565 3.7286606506415616 2.0 34.820084207853569 1.1775507288781053 2.0 41.263911870452404 3.9995280969722158 2.0 59.715939377485761 3.6101685901592009 2.0 63.00567021813832 3.9939313617624088 2.0 86.46132654096408 1.9120137951968375 2.0 20.529222185868051 4.138911769512668 2.0 39.397100848853896 3.3244375681930221 2.0 19.655527220925951 2.3873853983842697 2.0 40.316132788768918 1 2.0 </DataArray>
<DataArray Name="forces" NumberOfComponents="3" format="ascii" type="Float32">0.0 0.0 0.0 0.0 0.0 0.0 0.0 0.0 0.0 0.0 0.0 0.0 -0.0084833574173722483 0.056615081201310716 0.0 0.0169657698566874 0.017325459841375394 0.0 0.049204761484952009 -0.10846395471663522 0.0 0.095158483810134697 0.0 0.0 0.0 0.0 0.0 0.0056154652073393003 0.009438951220487617 0.0 0.0 0.0 0.0 -0.048472333147096584 0.01246129680401812 0.0 -0.045530128621050117 -0.058006116294606155 0.0 -0.018246481364284167 0.040563068244510656 0.0 0.077237251022079109 -0.052255499430972768 0.0 0.0 0.0 0.0 -0.00081196589314940404 0.00045018018682154982 0.0 -0.0040110902581235383 0.005357907676423153 0.0 0.0065779344292170453 -0.00092364897070774141 0.0 0.0 0.0 0.0 -0.0070878254736685565 -0.010265582564961328 0.0 0.076119380722318511 -0.040534089206540849 0.0 0.0 0.0 0.0 0.0 0.0 0.0 -0.01224762307503355 -0.0053952260396695649 0.0 0.0 0.0 0.0 0.0 0.0 0.0 0.0 0.0 0.0 -0.023419864598588341 -0.0032101468437437403 0.0 0.031211398520789281 -0.021054600654969446 0.0 0.0 0.0 0.0 0.0 0.0 0.0 -0.025065875422897736 -0.020017074934105691 0.0 0.02184088329722415 0.056623986371225871 0.0 -0.085655251603655586 -0.095684656219721873 0.0 -0.051482280800298819 0.042767414937885329 0.0 0.044645491262206766 -0.15274732517973441 0.0 -0.0056154652073393003 -0.009438951220487617 0.0 -0.0014871055121465427 0.00719701413217859 0.0 0.063114515936855353 0.061241224498813002 0.0 -4.4202843200969138e-05 -0.0012666446990955598 0.0 -0.0017106754347431339 -0.0036177941934414015 0.0 -0.027126539512581406 0.028892122049976182 0.0 0.00087617323600998331 -0.081282660381819 0.0 0.033691805022901603 0.04075604443889129 0.0 0.00056061433307195985 -0.00078341531676535438 0.0 0.01168700874196159 0.0061786413564349192 0.0 -0.01073691893385406 0.017439436698330153 0.0 -0.0038870023065677526 0.0068279297684928769 0.0 0.0074512829584911615 0.00098197155987626806 0.0 -0.014443096070250554 0.017609373913404915 0.0 0.01766808819592414 -0.054216285350525098 0.0 0.0025002903453965096 0.016168861403456931 0.0 -0.078679471575925933 0.077352210298377674 0.0 -0.058010580396693504 -0.0089349376713474746 0.0 -0.00090384081232826666 0.081655413111973177 0.0 -0.092707363371771573 0.048354006503032988 0.0 0.016234369376791437 0.01408015916142071 0.0 -0.00061889564027028769 -0.00098459052798611016 0.0 0.039717084442923788 0.0850105508286291 0.0 0.0049364710924374514 0.044374948061505506 0.0 -0.02389151980504859 0.061656357605056361 0.0 0.027362231802227271 -0.12829641145607265 0.0 </DataArray>
<DataArray Name="radii" format="ascii" type="Float32">1 1 1 1 1 1 1 1 1 1 1 1 1 1 1 1 1 1 1 1 1 1 1 1 1 1 1 1 1 1 1 1 1 1 1 1 1 1 1 1 1 1 1 1 1 1 1 1 1 1 1 1 1 1 1 1 1 1 1 1 1 1 1 </DataArray>
</PointData>
<CellData/>
</Piece>
</UnstructuredGrid>
</VTKFile>
