<?xml version="1.0" ?>
<VTKFile byte_order="LittleEndian" type="UnstructuredGrid" version="0.1">
<UnstructuredGrid>
<Piece NumberOfCells="0" NumberOfPoints="61">
<Points>
<DataArray NumberOfComponents="3" format="ascii" type="Float32">1.0 1.0 2.0 4.0 1.0 2.0 7.0 1.0 2.0 10.0 1.0 2.0 12.851135375460249 2.1843574819083265 2.0 16.40531751009485 1.9836835922982625 2.0 18.705611320450043 1.9250090089712284 2.0 22.028776014581613 1.0 2.0 25.0 1.0 2.0 28.068407347057548 2.1768141054092918 2.0 31.0 1.0 2.0 33.582217748285281 1.7627010071822586 2.0 37.0 1.0 2.0 39.573911378132223 1.8278589470639375 2.0 43.010662158996666 1.0 2.0 46.0 1.0 2.0 48.778630189859612 2.0665667999964104 2.0 51.818684207336332 2.155056462776384 2.0 55.0 1.0 2.0 58.0 1.0 2.0 60.719174869935848 1.6798622434459261 2.0 64.248449793178949 1.9267120541616982 2.0 67.217350118658601 1.8921650852031295 2.0 70.0 1.0 2.0 72.760112567381285 1.9157846196571027 2.0 76.100014245127497 1.7967722696679393 2.0 79.0 1.0 2.0 82.0 1.0 2.0 84.7685282994874 1.8451902694180848 2.0 87.937658213836059 1.869451935439064 2.0 91.09278100321194 1.7374242807093805 2.0 94.0 1.0 2.0 96.645905959250626 1.8952525644771705 2.0 99.065651170024736 2.1618225511667184 2.0 13.295623694387217 1 2.0 14.946844018551381 1.964842338113671 2.0 20.16621067581082 1.8612579729164269 2.0 27.581845211758203 1 2.0 34.399808283498011 2.5113531165295035 2.0 40.72889384519754 1.9294754842125856 2.0 50.041762654083996 1.5727219452022032 2.0 52.668365355351767 1.5978359784101717 2.0 61.492257793428344 2.6517405538177123 2.0 63.079201685966964 2.2317891156493492 2.0 66.118750390925584 2.6000666330809059 2.0 73.926955496743403 2.4333309044200999 2.0 75.79654981747133 3.0314322246610028 2.0 85.735802592846525 2.887762607766946 2.0 88.978450414719831 2.6385984764540877 2.0 90.921136862832995 2.79735477467427 2.0 97.557117199453614 2.3039812110811568 2.0 99.729723796413111 1.1007427887601147 2.0 15.67438619220037 2.2610143139859442 2.0 19.474959942656351 2.7941230602429279 2.0 34.488038293956542 1.7115177562321595 2.0 40.65390442194046 3.0178969681869918 2.0 60.71419835802913 2.9336040949245539 2.0 62.621777033194796 3.273279472061799 2.0 86.625979615237355 2.1929860461836936 2.0 19.725837559462882 3.1218030006606132 2.0 40.006951064163829 2.6189116701736488 2.0 </DataArray>
</Points>
<Cells>
<DataArray Name="connectivity" format="ascii" type="Int32">0</DataArray>
<DataArray Name="offsets" format="ascii" type="Int32">0</DataArray>
<DataArray Name="types" format="ascii" type="UInt8">1</DataArray>
</Cells>
<PointData>
<DataArray Name="Points" NumberOfComponents="3" format="ascii" type="Float32">1.0 1.0 2.0 4.0 1.0 2.0 7.0 1.0 2.0 10.0 1.0 2.0 12.851135375460249 2.1843574819083265 2.0 16.40531751009485 1.9836835922982625 2.0 18.705611320450043 1.9250090089712284 2.0 22.028776014581613 1.0 2.0 25.0 1.0 2.0 28.068407347057548 2.1768141054092918 2.0 31.0 1.0 2.0 33.582217748285281 1.7627010071822586 2.0 37.0 1.0 2.0 39.573911378132223 1.8278589470639375 2.0 43.010662158996666 1.0 2.0 46.0 1.0 2.0 48.778630189859612 2.0665667999964104 2.0 51.818684207336332 2.155056462776384 2.0 55.0 1.0 2.0 58.0 1.0 2.0 60.719174869935848 1.6798622434459261 2.0 64.248449793178949 1.9267120541616982 2.0 67.217350118658601 1.8921650852031295 2.0 70.0 1.0 2.0 72.760112567381285 1.9157846196571027 2.0 76.100014245127497 1.7967722696679393 2.0 79.0 1.0 2.0 82.0 1.0 2.0 84.7685282994874 1.8451902694180848 2.0 87.937658213836059 1.869451935439064 2.0 91.09278100321194 1.7374242807093805 2.0 94.0 1.0 2.0 96.645905959250626 1.8952525644771705 2.0 99.065651170024736 2.1618225511667184 2.0 13.295623694387217 1 2.0 14.946844018551381 1.964842338113671 2.0 20.16621067581082 1.8612579729164269 2.0 27.581845211758203 1 2.0 34.399808283498011 2.5113531165295035 2.0 40.72889384519754 1.9294754842125856 2.0 50.041762654083996 1.5727219452022032 2.0 52.668365355351767 1.5978359784101717 2.0 61.492257793428344 2.6517405538177123 2.0 63.079201685966964 2.2317891156493492 2.0 66.118750390925584 2.6000666330809059 2.0 73.926955496743403 2.4333309044200999 2.0 75.79654981747133 3.0314322246610028 2.0 85.735802592846525 2.887762607766946 2.0 88.978450414719831 2.6385984764540877 2.0 90.921136862832995 2.79735477467427 2.0 97.557117199453614 2.3039812110811568 2.0 99.729723796413111 1.1007427887601147 2.0 15.67438619220037 2.2610143139859442 2.0 19.474959942656351 2.7941230602429279 2.0 34.488038293956542 1.7115177562321595 2.0 40.65390442194046 3.0178969681869918 2.0 60.71419835802913 2.9336040949245539 2.0 62.621777033194796 3.273279472061799 2.0 86.625979615237355 2.1929860461836936 2.0 19.725837559462882 3.1218030006606132 2.0 40.006951064163829 2.6189116701736488 2.0 </DataArray>
<DataArray Name="forces" NumberOfComponents="3" format="ascii" type="Float32">0.0 0.0 0.0 0.0 0.0 0.0 0.0 0.0 0.0 0.0 0.0 0.0 -0.26453235184763702 0.72101546814635264 0.0 1.9220752484806969 -0.41809841844008799 0.0 -1.6510446868995456 -1.0961327990315686 0.0 0.0 0.0 0.0 0.0 0.0 0.0 0.28475954291265593 0.70460197019922943 0.0 0.0 0.0 0.0 -1.9906587577696815 -0.65585709189846964 0.0 0.0 0.0 0.0 -1.992802473671424 -1.5759088553035927 0.0 0.0 0.0 0.0 0.0 0.0 0.0 -0.64721352392805975 0.25186705334822479 0.0 -0.8045477797004964 0.60679436148481836 0.0 0.0 0.0 0.0 0.0 0.0 0.0 -0.53628161503268101 -1.5052676576241264 0.0 0.78723487554742277 -0.22352722794565913 0.0 0.63119655575153533 -0.40672230982040136 0.0 0.0 0.0 0.0 -0.71620082740391511 -0.31763621346562837 0.0 0.18863935990022196 -0.76651659674340533 0.0 0.0 0.0 0.0 0.0 0.0 0.0 -0.57605969038975136 -0.47570712412051047 0.0 0.017694601599982707 -0.58379098384651584 0.0 0.16128418660029847 -0.99037986894859009 0.0 0.0 0.0 0.0 -0.97817912285773478 -0.42851817391404662 0.0 0.03223176420385615 0.62730100839196534 0.0 0.2587668539805934 -0.72428179378523128 0.0 -1.9015696466619931 -0.46074356946831796 0.0 1.4898787907501219 -1.5662787734697154 0.0 -0.28475954291265593 -0.70460197019922943 0.0 0.64782846199951893 2.0154265355108802 0.0 1.888068073599221 -1.769030997503279 0.0 0.56088257481712478 -0.27773991469602743 0.0 0.89087872881143138 -0.58092150013701571 0.0 0.74783914965980702 0.0080280854043295324 0.0 -0.057974647388907452 -0.68283280968290017 0.0 -0.63119655575153533 0.40672230982040136 0.0 0.70690285288087273 0.31480046719183202 0.0 -0.17934138537717961 0.76935234301720168 0.0 -0.30354443513035639 0.99607851757491495 0.0 0.58198644645374042 0.4329576542383386 0.0 -0.13646017059173857 0.99210883349785672 0.0 0.51461932176106728 0.47346870046459899 0.0 0.43132803689281135 -0.67225153494251777 0.0 -0.014740103951660144 0.88210831354728447 0.0 -0.95959899357971901 0.064629032940260345 0.0 1.3428302957701628 -1.3595694436124108 0.0 1.4623469015098549 2.2457142403102335 0.0 -1.3015004669843553 1.2302482453013532 0.0 0.36068270419871412 1.1733513645470028 0.0 0.25509906145782468 -0.37126702839549386 0.0 1.1207648897291427 2.5977825395610239 0.0 -1.3576125014376519 1.099225612496638 0.0 </DataArray>
<DataArray Name="radii" format="ascii" type="Float32">1 1 1 1 1 1 1 1 1 1 1 1 1 1 1 1 1 1 1 1 1 1 1 1 1 1 1 1 1 1 1 1 1 1 1 1 1 1 1 1 1 1 1 1 1 1 1 1 1 1 1 1 1 1 1 1 1 1 1 1 1 </DataArray>
</PointData>
<CellData/>
</Piece>
</UnstructuredGrid>
</VTKFile>
