<?xml version="1.0" ?>
<VTKFile byte_order="LittleEndian" type="UnstructuredGrid" version="0.1">
<UnstructuredGrid>
<Piece NumberOfCells="0" NumberOfPoints="61">
<Points>
<DataArray NumberOfComponents="3" format="ascii" type="Float32">1.0 1.0 2.0 4.0 1.0 2.0 7.0 1.0 2.0 10.0 1.0 2.0 12.845654918529531 2.1989603857278048 2.0 16.440977245702651 1.9746609276505558 2.0 18.662748397482471 1.8891186951553223 2.0 22.028776014581613 1.0 2.0 25.0 1.0 2.0 28.07429868703505 2.1910630809918659 2.0 31.0 1.0 2.0 33.545113221881493 1.7512337198641845 2.0 37.0 1.0 2.0 39.529156998256418 1.7810629534084901 2.0 43.010662158996666 1.0 2.0 46.0 1.0 2.0 48.765906481862409 2.0715413675150915 2.0 51.803847382252073 2.167366635897308 2.0 55.0 1.0 2.0 58.0 1.0 2.0 60.709221960672515 1.6514345346827004 2.0 64.264461550089138 1.9223833057064852 2.0 67.229713827429848 1.884198317730198 2.0 70.0 1.0 2.0 72.746076833093625 1.9095591526711817 2.0 76.103704745847295 1.7817572859092217 2.0 79.0 1.0 2.0 82.0 1.0 2.0 84.757888102399022 1.8357702387957262 2.0 87.938983814796629 1.8572511279836559 2.0 91.095923256701838 1.7180203541532209 2.0 94.0 1.0 2.0 96.626517588193224 1.8865558075535169 2.0 99.067469596121839 2.1743175726572375 2.0 13.299499910603846 1 2.0 14.913088688760901 1.9559137420343791 2.0 20.19986828064928 1.8131038398904546 2.0 27.575953871780701 1 2.0 34.410978915770592 2.5493420959734592 2.0 40.778710612425421 1.8824558042657582 2.0 50.051862938998589 1.5668876268338512 2.0 52.685825603518644 1.5863855561389182 2.0 61.505098940987892 2.6505312704808364 2.0 63.077660313399917 2.2173262123035169 2.0 66.106629867540235 2.6081209533211944 2.0 73.940242027271864 2.4393166938714153 2.0 75.79360852051073 3.0466868859543257 2.0 85.729575153111185 2.9081218300042577 2.0 88.989421763733716 2.6474130680778005 2.0 90.919069876955874 2.8168465720785356 2.0 97.566263110106206 2.3136431795769594 2.0 99.73814783072082 1.0872825556974468 2.0 15.674086027097136 2.2799029658889283 2.0 19.442787746993481 2.7781675070848064 2.0 34.513972188087749 1.6849960641062782 2.0 40.698641797238118 3.0682686724298462 2.0 60.689437797486761 2.957683016379169 2.0 62.628935785711903 3.297541641740974 2.0 86.629475034473842 2.1853451995523296 2.0 19.767215073254864 3.2218030006606133 2.0 39.957151301514095 2.662355639533069 2.0 </DataArray>
</Points>
<Cells>
<DataArray Name="connectivity" format="ascii" type="Int32">0</DataArray>
<DataArray Name="offsets" format="ascii" type="Int32">0</DataArray>
<DataArray Name="types" format="ascii" type="UInt8">1</DataArray>
</Cells>
<PointData>
<DataArray Name="Points" NumberOfComponents="3" format="ascii" type="Float32">1.0 1.0 2.0 4.0 1.0 2.0 7.0 1.0 2.0 10.0 1.0 2.0 12.845654918529531 2.1989603857278048 2.0 16.440977245702651 1.9746609276505558 2.0 18.662748397482471 1.8891186951553223 2.0 22.028776014581613 1.0 2.0 25.0 1.0 2.0 28.07429868703505 2.1910630809918659 2.0 31.0 1.0 2.0 33.545113221881493 1.7512337198641845 2.0 37.0 1.0 2.0 39.529156998256418 1.7810629534084901 2.0 43.010662158996666 1.0 2.0 46.0 1.0 2.0 48.765906481862409 2.0715413675150915 2.0 51.803847382252073 2.167366635897308 2.0 55.0 1.0 2.0 58.0 1.0 2.0 60.709221960672515 1.6514345346827004 2.0 64.264461550089138 1.9223833057064852 2.0 67.229713827429848 1.884198317730198 2.0 70.0 1.0 2.0 72.746076833093625 1.9095591526711817 2.0 76.103704745847295 1.7817572859092217 2.0 79.0 1.0 2.0 82.0 1.0 2.0 84.757888102399022 1.8357702387957262 2.0 87.938983814796629 1.8572511279836559 2.0 91.095923256701838 1.7180203541532209 2.0 94.0 1.0 2.0 96.626517588193224 1.8865558075535169 2.0 99.067469596121839 2.1743175726572375 2.0 13.299499910603846 1 2.0 14.913088688760901 1.9559137420343791 2.0 20.19986828064928 1.8131038398904546 2.0 27.575953871780701 1 2.0 34.410978915770592 2.5493420959734592 2.0 40.778710612425421 1.8824558042657582 2.0 50.051862938998589 1.5668876268338512 2.0 52.685825603518644 1.5863855561389182 2.0 61.505098940987892 2.6505312704808364 2.0 63.077660313399917 2.2173262123035169 2.0 66.106629867540235 2.6081209533211944 2.0 73.940242027271864 2.4393166938714153 2.0 75.79360852051073 3.0466868859543257 2.0 85.729575153111185 2.9081218300042577 2.0 88.989421763733716 2.6474130680778005 2.0 90.919069876955874 2.8168465720785356 2.0 97.566263110106206 2.3136431795769594 2.0 99.73814783072082 1.0872825556974468 2.0 15.674086027097136 2.2799029658889283 2.0 19.442787746993481 2.7781675070848064 2.0 34.513972188087749 1.6849960641062782 2.0 40.698641797238118 3.0682686724298462 2.0 60.689437797486761 2.957683016379169 2.0 62.628935785711903 3.297541641740974 2.0 86.629475034473842 2.1853451995523296 2.0 19.767215073254864 3.2218030006606133 2.0 39.957151301514095 2.662355639533069 2.0 </DataArray>
<DataArray Name="forces" NumberOfComponents="3" format="ascii" type="Float32">0.0 0.0 0.0 0.0 0.0 0.0 0.0 0.0 0.0 0.0 0.0 0.0 -0.25824957934006187 0.68811666913868819 0.0 1.6803547289051077 -0.42516516036034929 0.0 -2.0197826505335508 -1.6912200136798292 0.0 0.0 0.0 0.0 0.0 0.0 0.0 0.27761117187353274 0.67143889583390037 0.0 0.0 0.0 0.0 -1.7484360257775613 -0.5403604413831814 0.0 0.0 0.0 0.0 -2.1089117062064919 -2.2051164399418575 0.0 0.0 0.0 0.0 0.0 0.0 0.0 -0.59956537921245057 0.23441110574148641 0.0 -0.69913948511780721 0.58007882741731298 0.0 0.0 0.0 0.0 0.0 0.0 0.0 -0.46900006020631768 -1.339567835768583 0.0 0.75450451282162112 -0.20397888018458799 0.0 0.58260152932886522 -0.37540927236429394 0.0 0.0 0.0 0.0 -0.66139055946238756 -0.29335587354007031 0.0 0.17390343004060416 -0.70753466152660849 0.0 0.0 0.0 0.0 0.0 0.0 0.0 -0.50138637287081078 -0.44388980268400852 0.0 0.062464844586593182 -0.5749253087470968 0.0 0.14806897530697877 -0.91435001388053805 0.0 0.0 0.0 0.0 -0.91361700912156341 -0.40980776704362476 0.0 0.085687704615800442 0.58878923501526448 0.0 0.182654698327194 -0.73228832853417225 0.0 -1.5906154959481571 -0.42073247007023223 0.0 1.5860105098914179 -2.2691145564414708 0.0 -0.27761117187353274 -0.67143889583390037 0.0 0.52638149005180579 1.7901131392842669 0.0 2.3474610499304829 -2.2156569644607593 0.0 0.47594468187267597 -0.27492420493586517 0.0 0.82276018245758187 -0.53956572822293425 0.0 0.60509935529465442 -0.056983736392616779 0.0 -0.072632414062905715 -0.68151957990259493 0.0 -0.57114217030019976 0.37953492568586567 0.0 0.62608664993473662 0.28206181115228335 0.0 -0.13859952051295327 0.71882872391439545 0.0 -0.293448833253936 0.95936536769530645 0.0 0.51699088295885953 0.41536036276816368 0.0 -0.097400315341858029 0.91849065577344491 0.0 0.43097274708487682 0.45529037654730886 0.0 0.39695655742088615 -0.63427184451894858 0.0 -0.014144351944082922 0.89006928982606559 0.0 -1.5160151975310399 -0.75185608486902189 0.0 1.2220545357257555 -1.2497526979010856 0.0 2.1081104180640562 2.3736107400911512 0.0 -1.1667648200006655 1.1346446866068272 0.0 0.3373340671249479 1.1432796923199837 0.0 0.16471081861417336 -0.36005126092527162 0.0 1.9497873381731723 4.7121906549903212 0.0 -2.3466597617880467 2.0471626643114647 0.0 </DataArray>
<DataArray Name="radii" format="ascii" type="Float32">1 1 1 1 1 1 1 1 1 1 1 1 1 1 1 1 1 1 1 1 1 1 1 1 1 1 1 1 1 1 1 1 1 1 1 1 1 1 1 1 1 1 1 1 1 1 1 1 1 1 1 1 1 1 1 1 1 1 1 2 2 </DataArray>
</PointData>
<CellData/>
</Piece>
</UnstructuredGrid>
</VTKFile>
