<?xml version="1.0" ?>
<VTKFile byte_order="LittleEndian" type="UnstructuredGrid" version="0.1">
<UnstructuredGrid>
<Piece NumberOfCells="0" NumberOfPoints="52">
<Points>
<DataArray NumberOfComponents="3" format="ascii" type="Float32">1.0 1.0 2.0 4.0 1.0 2.0 7.0 1.0 2.0 10.0 1.0 2.0 12.880102160006178 2.103601287383682 2.0 16.172494843844923 2.0272853347346929 2.0 18.90239805457723 2.039881072357991 2.0 22.028776014581613 1 2.0 25.0 1.0 2.0 28.037178374006285 2.0978020359538734 2.0 31.0 1.0 2.0 33.822941306355013 1.8475307686512032 2.0 37.0 1.0 2.0 39.789355551663469 1.9644344652626973 2.0 43.010662158996666 1 2.0 46.0 1.0 2.0 48.853259571655528 2.0375660093726906 2.0 51.916653201123069 2.0867108782022012 2.0 55.0 1.0 2.0 58.0 1.0 2.0 60.78565820173106 1.8596476450187578 2.0 64.161167266700971 1.9536216143521226 2.0 67.14449251294954 1.9391121311145094 2.0 70.0 1.0 2.0 72.842782025913692 1.9524486568555357 2.0 76.078240026020012 1.8852495648402601 2.0 79.0 1.0 2.0 82.0 1.0 2.0 84.838806564898704 1.8994245929796343 2.0 87.94108050874172 1.9329756761738892 2.0 91.074157718784448 1.8517398381836903 2.0 94.0 1.0 2.0 96.757820963951133 1.943208962317738 2.0 99.068296556094381 2.0903355897785909 2.0 13.266878849044407 1 2.0 15.177837419014649 2.0139343460434156 2.0 19.98382542213 2.0100163082608957 2.0 27.613074184809467 1 2.0 34.314701984717416 2.2709969712642994 2.0 40.57085490282779 2.1027351509244099 2.0 49.971985563576951 1.6031450354614978 2.0 52.565544070276161 1.6647592633487793 2.0 61.394498608903874 2.6423204630115165 2.0 63.083941303733411 2.3042611147931664 2.0 66.191607996634644 2.553119587169526 2.0 73.844643957874467 2.3967760274854921 2.0 75.817966116915343 2.9428457692248569 2.0 85.769453644688284 2.777495203248264 2.0 88.910182975232487 2.590367891621419 2.0 90.93871634133798 2.6829673525036539 2.0 97.49251877753882 2.2513230668657096 2.0 99.679761827557769 1.1769314965231219 2.0 </DataArray>
</Points>
<Cells>
<DataArray Name="connectivity" format="ascii" type="Int32">0</DataArray>
<DataArray Name="offsets" format="ascii" type="Int32">0</DataArray>
<DataArray Name="types" format="ascii" type="UInt8">1</DataArray>
</Cells>
<PointData>
<DataArray Name="Points" NumberOfComponents="3" format="ascii" type="Float32">1.0 1.0 2.0 4.0 1.0 2.0 7.0 1.0 2.0 10.0 1.0 2.0 12.880102160006178 2.103601287383682 2.0 16.172494843844923 2.0272853347346929 2.0 18.90239805457723 2.039881072357991 2.0 22.028776014581613 1 2.0 25.0 1.0 2.0 28.037178374006285 2.0978020359538734 2.0 31.0 1.0 2.0 33.822941306355013 1.8475307686512032 2.0 37.0 1.0 2.0 39.789355551663469 1.9644344652626973 2.0 43.010662158996666 1 2.0 46.0 1.0 2.0 48.853259571655528 2.0375660093726906 2.0 51.916653201123069 2.0867108782022012 2.0 55.0 1.0 2.0 58.0 1.0 2.0 60.78565820173106 1.8596476450187578 2.0 64.161167266700971 1.9536216143521226 2.0 67.14449251294954 1.9391121311145094 2.0 70.0 1.0 2.0 72.842782025913692 1.9524486568555357 2.0 76.078240026020012 1.8852495648402601 2.0 79.0 1.0 2.0 82.0 1.0 2.0 84.838806564898704 1.8994245929796343 2.0 87.94108050874172 1.9329756761738892 2.0 91.074157718784448 1.8517398381836903 2.0 94.0 1.0 2.0 96.757820963951133 1.943208962317738 2.0 99.068296556094381 2.0903355897785909 2.0 13.266878849044407 1 2.0 15.177837419014649 2.0139343460434156 2.0 19.98382542213 2.0100163082608957 2.0 27.613074184809467 1 2.0 34.314701984717416 2.2709969712642994 2.0 40.57085490282779 2.1027351509244099 2.0 49.971985563576951 1.6031450354614978 2.0 52.565544070276161 1.6647592633487793 2.0 61.394498608903874 2.6423204630115165 2.0 63.083941303733411 2.3042611147931664 2.0 66.191607996634644 2.553119587169526 2.0 73.844643957874467 2.3967760274854921 2.0 75.817966116915343 2.9428457692248569 2.0 85.769453644688284 2.777495203248264 2.0 88.910182975232487 2.590367891621419 2.0 90.93871634133798 2.6829673525036539 2.0 97.49251877753882 2.2513230668657096 2.0 99.679761827557769 1.1769314965231219 2.0 </DataArray>
<DataArray Name="forces" NumberOfComponents="3" format="ascii" type="Float32">0.0 0.0 0.0 0.0 0.0 0.0 0.0 0.0 0.0 0.0 0.0 0.0 -1.0297021252252971 0.89201007505228658 0.0 2.1328622683490646 0.060319567683693995 0.0 -2.0803143982376038 0.081837030631270055 0.0 0.62086989550362837 -0.29794841206101319 0.0 0.0 0.0 0.0 0.3158350776853418 0.83084089740064715 0.0 0.0 0.0 0.0 -1.9635452786119829 -1.6908530904943799 0.0 0.0 0.0 0.0 -2.3872592530814729 -0.40306854779657236 0.0 0.23004622559286664 -0.09819021375081044 0.0 0.0 0.0 0.0 -0.82182240396871564 0.31912809007051712 0.0 -1.1327982384401742 0.73662008318408889 0.0 0.0 0.0 0.0 0.0 0.0 0.0 -2.3060240433078429 -1.7370290840627818 0.0 2.1575951518330818 -0.61385721118167513 0.0 0.80272607304074084 -0.51725029169630976 0.0 0.0 0.0 0.0 -0.91083050509671626 -0.40395478709038701 0.0 0.23990265981938175 -0.97481973248694076 0.0 0.0 0.0 0.0 0.0 0.0 0.0 -1.3942291235611934 -1.261092091039983 0.0 -0.11790433697069214 -0.69802798412347511 0.0 0.20522293384044366 -1.2594891782245108 0.0 0.0 0.0 0.0 -1.2129076147068119 -0.49432417460174721 0.0 -0.19014833311115975 0.7698683672880744 0.0 -0.45879398068499266 -1.2529764174083573 0.0 -0.64436616243877476 0.30064677467237672 0.0 1.4594445027339753 0.21611138142974312 0.0 -0.3158350776853418 -0.83084089740064715 0.0 1.9635452786119829 1.6908530904943799 0.0 2.1572130274886061 0.5012587615473828 0.0 0.82182240396871564 -0.31912809007051712 0.0 1.1327982384401742 -0.73662008318408889 0.0 -1.2277176481391585 2.0582005176208344 0.0 1.3761465396139196 0.29268577762362263 0.0 -0.80272607304074084 0.51725029169630976 0.0 0.91083050509671626 0.40395478709038701 0.0 -0.23990265981938175 0.97481973248694076 0.0 0.76311560170290738 1.4732879884990151 0.0 0.7490178588289782 0.48583208666444316 0.0 -0.20522293384044366 1.2594891782245108 0.0 0.84791858159818001 0.53297583826201955 0.0 0.55513736621979159 -0.80852003094834668 0.0 </DataArray>
<DataArray Name="radii" format="ascii" type="Float32">1 1 1 1 1 1 1 1 1 1 1 1 1 1 1 1 1 1 1 1 1 1 1 1 1 1 1 1 1 1 1 1 1 1 1 2 2 1 2 2 1 1 2 2 1 1 1 2 1 1 1 1 </DataArray>
</PointData>
<CellData/>
</Piece>
</UnstructuredGrid>
</VTKFile>
