<?xml version="1.0" ?>
<VTKFile byte_order="LittleEndian" type="UnstructuredGrid" version="0.1">
<UnstructuredGrid>
<Piece NumberOfCells="0" NumberOfPoints="59">
<Points>
<DataArray NumberOfComponents="3" format="ascii" type="Float32">1.0 1.0 2.0 4.0 1.0 2.0 7.0 1.0 2.0 10.0 1.0 2.0 12.86900594931034 2.1352624312842061 2.0 16.270756378511141 2.011465933544661 2.0 18.831980075556263 2.0081523420448972 2.0 22.028776014581613 1.0 2.0 25.0 1.0 2.0 28.04915977572519 2.1288161299799317 2.0 31.0 1.0 2.0 33.721442449953024 1.8096176264214026 2.0 37.0 1.0 2.0 39.715904366668347 1.9294261669969102 2.0 43.010662158996666 1.0 2.0 46.0 1.0 2.0 48.823141296538509 2.0492614651888101 2.0 51.87513823531944 2.1137066454323508 2.0 55.0 1.0 2.0 58.0 1.0 2.0 60.756919216723098 1.7846865492170187 2.0 64.195201556030895 1.9422307021708101 2.0 67.173910942764422 1.9201558620782344 2.0 70.0 1.0 2.0 72.809401768080605 1.9376444590706219 2.0 76.087032015961938 1.8495242198621245 2.0 79.0 1.0 2.0 82.0 1.0 2.0 84.808942227707547 1.8777899911124889 2.0 87.937573516050662 1.9087979878176018 2.0 91.081678760741781 1.8055818831395234 2.0 94.0 1.0 2.0 96.712998474149245 1.9244115179079364 2.0 99.064772189394489 2.1188642001868501 2.0 13.277975059740244 1 2.0 15.080188774100378 1.995723793917229 2.0 20.050943078977486 1.9701644167648886 2.0 27.601092783090561 1 2.0 34.353229967008708 2.3709969712642995 2.0 40.621079101756663 2.0566696136946452 2.0 50.002103838693969 1.591449579645378 2.0 52.607059036079789 1.6377634961186296 2.0 61.438530392220393 2.6494767094440776 2.0 63.082730686731374 2.2774687384891279 2.0 66.162189566819762 2.5720758562058008 2.0 73.878024215707555 2.4115802252704057 2.0 75.809174126973417 2.9785711142029925 2.0 85.756391048792224 2.8202058542158701 2.0 88.937892863654525 2.6091649389610372 2.0 90.931195299380647 2.7291253075478208 2.0 97.520624253145087 2.2718283853021704 2.0 99.700003208453268 1.1466950120882036 2.0 15.675380629031963 2.2022247817911427 2.0 19.507001921757798 2.702073283320797 2.0 34.395391908778102 1.8049572822582198 2.0 40.567465740077978 2.8314496152576849 2.0 60.804415756512803 2.8490327614153266 2.0 62.597261925515483 3.1940920733246774 2.0 86.606663285844718 2.2181024278511847 2.0 </DataArray>
</Points>
<Cells>
<DataArray Name="connectivity" format="ascii" type="Int32">0</DataArray>
<DataArray Name="offsets" format="ascii" type="Int32">0</DataArray>
<DataArray Name="types" format="ascii" type="UInt8">1</DataArray>
</Cells>
<PointData>
<DataArray Name="Points" NumberOfComponents="3" format="ascii" type="Float32">1.0 1.0 2.0 4.0 1.0 2.0 7.0 1.0 2.0 10.0 1.0 2.0 12.86900594931034 2.1352624312842061 2.0 16.270756378511141 2.011465933544661 2.0 18.831980075556263 2.0081523420448972 2.0 22.028776014581613 1.0 2.0 25.0 1.0 2.0 28.04915977572519 2.1288161299799317 2.0 31.0 1.0 2.0 33.721442449953024 1.8096176264214026 2.0 37.0 1.0 2.0 39.715904366668347 1.9294261669969102 2.0 43.010662158996666 1.0 2.0 46.0 1.0 2.0 48.823141296538509 2.0492614651888101 2.0 51.87513823531944 2.1137066454323508 2.0 55.0 1.0 2.0 58.0 1.0 2.0 60.756919216723098 1.7846865492170187 2.0 64.195201556030895 1.9422307021708101 2.0 67.173910942764422 1.9201558620782344 2.0 70.0 1.0 2.0 72.809401768080605 1.9376444590706219 2.0 76.087032015961938 1.8495242198621245 2.0 79.0 1.0 2.0 82.0 1.0 2.0 84.808942227707547 1.8777899911124889 2.0 87.937573516050662 1.9087979878176018 2.0 91.081678760741781 1.8055818831395234 2.0 94.0 1.0 2.0 96.712998474149245 1.9244115179079364 2.0 99.064772189394489 2.1188642001868501 2.0 13.277975059740244 1 2.0 15.080188774100378 1.995723793917229 2.0 20.050943078977486 1.9701644167648886 2.0 27.601092783090561 1 2.0 34.353229967008708 2.3709969712642995 2.0 40.621079101756663 2.0566696136946452 2.0 50.002103838693969 1.591449579645378 2.0 52.607059036079789 1.6377634961186296 2.0 61.438530392220393 2.6494767094440776 2.0 63.082730686731374 2.2774687384891279 2.0 66.162189566819762 2.5720758562058008 2.0 73.878024215707555 2.4115802252704057 2.0 75.809174126973417 2.9785711142029925 2.0 85.756391048792224 2.8202058542158701 2.0 88.937892863654525 2.6091649389610372 2.0 90.931195299380647 2.7291253075478208 2.0 97.520624253145087 2.2718283853021704 2.0 99.700003208453268 1.1466950120882036 2.0 15.675380629031963 2.2022247817911427 2.0 19.507001921757798 2.702073283320797 2.0 34.395391908778102 1.8049572822582198 2.0 40.567465740077978 2.8314496152576849 2.0 60.804415756512803 2.8490327614153266 2.0 62.597261925515483 3.1940920733246774 2.0 86.606663285844718 2.2181024278511847 2.0 </DataArray>
<DataArray Name="forces" NumberOfComponents="3" format="ascii" type="Float32">0.0 0.0 0.0 0.0 0.0 0.0 0.0 0.0 0.0 0.0 0.0 0.0 -0.27471065109490472 0.78383996967402902 0.0 2.4326764249227852 -0.39164342855125134 0.0 -1.7433490941995469 -0.78551321722773282 0.0 0.0 0.0 0.0 0.0 0.0 0.0 0.29662546588670474 0.76782085313255344 0.0 0.0 0.0 0.0 -2.5128233134610278 -0.93862168559115544 0.0 0.0 0.0 0.0 -1.8184426563989307 -0.86670600207024528 0.0 0.0 0.0 0.0 0.0 0.0 0.0 -0.74564292207930472 0.28954625774211118 0.0 -1.0277926040441414 0.66833849823908009 0.0 0.0 0.0 0.0 0.0 0.0 0.0 -0.71149561771620284 -1.8558237581237411 0.0 0.84259230810038399 -0.28200662259115933 0.0 0.7283167407469846 -0.46930336418705693 0.0 0.0 0.0 0.0 -0.82640034642465277 -0.36650987656144152 0.0 0.21766469180989736 -0.88445804144784823 0.0 0.0 0.0 0.0 0.0 0.0 0.0 -0.73935614050470777 -0.53561127559804189 0.0 -0.086823175222030535 -0.59857087183974755 0.0 0.18619963063492673 -1.1427398263218169 0.0 0.0 0.0 0.0 -1.1096775011480173 -0.46537131767637308 0.0 -0.087253306318889667 0.70628734032827345 0.0 0.27471065109490472 -0.78383996967402902 0.0 -2.4175030159616435 -0.4508415321690647 0.0 1.6616424938157097 -0.98661960919124836 0.0 -0.29662546588670474 -0.76782085313255344 0.0 0.95384337867556468 2.4757158873879304 0.0 1.2434084721954211 -1.1404518238078902 0.0 0.74564292207930472 -0.28954625774211118 0.0 1.0277926040441414 -0.66833849823908009 0.0 1.0901018550672643 0.17716832987154907 0.0 -0.029971437454944128 -0.66330311676784603 0.0 -0.7283167407469846 0.46930336418705693 0.0 0.82640034642465277 0.36650987656144152 0.0 -0.21766469180989736 0.88445804144784823 0.0 -0.32339276190404076 1.057394371611833 0.0 0.68601811004186852 0.46536148734675392 0.0 -0.18619963063492673 1.1427398263218169 0.0 0.69581172481022557 0.50765342629094989 0.0 0.50111908265668137 -0.74856944894285027 0.0 -0.015173408961141721 0.84248496072031598 0.0 0.081706600383837036 1.7721328264189813 0.0 1.5589799347854634 -1.5370942017967748 0.0 0.5750341842035096 2.0071578258781355 0.0 -1.5469854585706502 1.4066201575080646 0.0 0.35575835057414873 1.2173450101031329 0.0 0.46355396758891054 -0.38857371152079756 0.0 </DataArray>
<DataArray Name="radii" format="ascii" type="Float32">1 1 1 1 1 1 1 1 1 1 1 1 1 1 1 1 1 1 1 1 1 1 1 1 1 1 1 1 1 1 1 1 1 1 1 1 1 1 1 1 1 1 1 1 1 1 1 1 1 1 1 1 1 1 1 1 1 1 1 </DataArray>
</PointData>
<CellData/>
</Piece>
</UnstructuredGrid>
</VTKFile>
