<?xml version="1.0" ?>
<VTKFile byte_order="LittleEndian" type="UnstructuredGrid" version="0.1">
<UnstructuredGrid>
<Piece NumberOfCells="0" NumberOfPoints="63">
<Points>
<DataArray NumberOfComponents="3" format="ascii" type="Float32">1.0 1.0 2.0 4.0 1.0 2.0 7.0 1.0 2.0 10.0 1.0 2.0 12.641855276213208 2.7474258651272008 2.0 16.582752836182507 1.5986092325869572 2.0 18.234928534896582 1.2682380416055545 2.0 22.495995397698138 1 2.0 25.0 1.0 2.0 28.293463896707369 2.6400384661278533 2.0 31.0 1.0 2.0 33.025756925436362 1.6642214188945039 2.0 36.877194083385348 1 2.0 38.60725374043195 1.5015830004941166 2.0 43.220536092317651 1 2.0 46.0 1.0 2.0 48.444209178258511 2.2123586157124682 2.0 51.615782516395683 2.586052429338892 2.0 55.011486510847355 1 2.0 58.0 1.0 2.0 60.423010137067187 1.1251920485049569 2.0 64.714032416114335 1.6950313450267491 2.0 67.520153416407865 1.6827409004776144 2.0 70.0 1.0 2.0 72.391567079536941 1.7519649006079656 2.0 76.174343108165928 1.464665613471728 2.0 79.0 1.0 2.0 82.0 1.0 2.0 84.572083083812515 1.6544611560894247 2.0 88.190713296864317 1.335234130324833 2.0 91.151948799865664 1.2967228836360254 2.0 94.0 1.0 2.0 96.072264396878126 1.578349035816951 2.0 99.362957779299421 2.6637632888628757 2.0 13.064006009676756 1 2.0 14.663876316983686 1.7207416529957449 2.0 20.840645852009622 1.2347286082099826 2.0 27.356788662108382 1 2.0 34.481658983684532 3.1222047145471303 2.0 41.682070833666245 1.9487264300477292 2.0 50.164726710903039 1.2961091967097293 2.0 53.071237490227112 1.299537843054378 2.0 61.565956750955635 2.6067193069472614 2.0 62.999943977634047 1.7489565355146772 2.0 66.046869037700731 2.9667394813004488 2.0 74.152627542224991 2.5317370421798393 2.0 75.865094396795669 3.4289524621466105 2.0 85.479825349605363 3.510212465421704 2.0 89.142888801827311 2.9658840612218711 2.0 91.041668162641869 3.266437249332653 2.0 97.564336555956032 2.6535489738889764 2.0 99.998839393008481 1 2.0 15.706043813189913 3.2154838139769319 2.0 18.523384874259296 3.4508943447534608 2.0 34.956730663705393 1.1997790138904558 2.0 41.232922677691718 3.7411870347915785 2.0 60.020374704824114 3.4481709771650451 2.0 62.920819602614301 3.9156686574083199 2.0 86.48120950755505 1.9398164446190154 2.0 20.437401301844051 3.9513382321919379 2.0 39.412245392867639 3.1945170640119009 2.0 19.654476704013721 2.1397566376327761 2.0 40.270243905607472 1 2.0 </DataArray>
</Points>
<Cells>
<DataArray Name="connectivity" format="ascii" type="Int32">0</DataArray>
<DataArray Name="offsets" format="ascii" type="Int32">0</DataArray>
<DataArray Name="types" format="ascii" type="UInt8">1</DataArray>
</Cells>
<PointData>
<DataArray Name="Points" NumberOfComponents="3" format="ascii" type="Float32">1.0 1.0 2.0 4.0 1.0 2.0 7.0 1.0 2.0 10.0 1.0 2.0 12.641855276213208 2.7474258651272008 2.0 16.582752836182507 1.5986092325869572 2.0 18.234928534896582 1.2682380416055545 2.0 22.495995397698138 1 2.0 25.0 1.0 2.0 28.293463896707369 2.6400384661278533 2.0 31.0 1.0 2.0 33.025756925436362 1.6642214188945039 2.0 36.877194083385348 1 2.0 38.60725374043195 1.5015830004941166 2.0 43.220536092317651 1 2.0 46.0 1.0 2.0 48.444209178258511 2.2123586157124682 2.0 51.615782516395683 2.586052429338892 2.0 55.011486510847355 1 2.0 58.0 1.0 2.0 60.423010137067187 1.1251920485049569 2.0 64.714032416114335 1.6950313450267491 2.0 67.520153416407865 1.6827409004776144 2.0 70.0 1.0 2.0 72.391567079536941 1.7519649006079656 2.0 76.174343108165928 1.464665613471728 2.0 79.0 1.0 2.0 82.0 1.0 2.0 84.572083083812515 1.6544611560894247 2.0 88.190713296864317 1.335234130324833 2.0 91.151948799865664 1.2967228836360254 2.0 94.0 1.0 2.0 96.072264396878126 1.578349035816951 2.0 99.362957779299421 2.6637632888628757 2.0 13.064006009676756 1 2.0 14.663876316983686 1.7207416529957449 2.0 20.840645852009622 1.2347286082099826 2.0 27.356788662108382 1 2.0 34.481658983684532 3.1222047145471303 2.0 41.682070833666245 1.9487264300477292 2.0 50.164726710903039 1.2961091967097293 2.0 53.071237490227112 1.299537843054378 2.0 61.565956750955635 2.6067193069472614 2.0 62.999943977634047 1.7489565355146772 2.0 66.046869037700731 2.9667394813004488 2.0 74.152627542224991 2.5317370421798393 2.0 75.865094396795669 3.4289524621466105 2.0 85.479825349605363 3.510212465421704 2.0 89.142888801827311 2.9658840612218711 2.0 91.041668162641869 3.266437249332653 2.0 97.564336555956032 2.6535489738889764 2.0 99.998839393008481 1 2.0 15.706043813189913 3.2154838139769319 2.0 18.523384874259296 3.4508943447534608 2.0 34.956730663705393 1.1997790138904558 2.0 41.232922677691718 3.7411870347915785 2.0 60.020374704824114 3.4481709771650451 2.0 62.920819602614301 3.9156686574083199 2.0 86.48120950755505 1.9398164446190154 2.0 20.437401301844051 3.9513382321919379 2.0 39.412245392867639 3.1945170640119009 2.0 19.654476704013721 2.1397566376327761 2.0 40.270243905607472 1 2.0 </DataArray>
<DataArray Name="forces" NumberOfComponents="3" format="ascii" type="Float32">0.0 0.0 0.0 0.0 0.0 0.0 0.0 0.0 0.0 0.0 0.0 0.0 -0.065888528521011458 0.24199456510910319 0.0 -0.25192951121920171 -0.13033766051750154 0.0 0.021339424707800481 -0.25953949573125168 0.0 0.36758222613193725 -0.068971264984757377 0.0 0.0 0.0 0.0 0.078288630591426975 0.13996121338344389 0.0 0.0 0.0 0.0 -0.024246746615275504 0.0057077911340844166 0.0 -0.16922742562507698 -0.058556242774924716 0.0 -0.15989458926434841 0.0038962994832607151 0.0 0.18921312695714412 -0.11330067341182747 0.0 0.0 0.0 0.0 -0.073715174856369581 0.038220581228585959 0.0 0.0013174438079018025 0.12131438660733365 0.0 0.033355319141039098 -0.0053801134077575618 0.0 0.0 0.0 0.0 -0.10793037071283561 -0.13580621260520656 0.0 0.18870079800543435 -0.13858761142021436 0.0 0.059077710974353131 -0.049061123623373899 0.0 0.0 0.0 0.0 -0.095101711475736664 -0.042185189338307359 0.0 0.0059309475789845502 -0.035320210303919714 0.0 0.0 0.0 0.0 0.0 0.0 0.0 -0.06862080340468904 -0.010781308487082933 0.0 0.14650087616450902 -0.21590079163409506 0.0 0.0040417523914422779 -0.058669077352514309 0.0 0.0 0.0 0.0 -0.17625915713653914 -0.12166107169875325 0.0 0.16020700228537774 0.24749095985339717 0.0 -0.21748060261115409 -0.37981695442786811 0.0 0.12597067574482876 -0.065694359248705203 0.0 0.13546229115514508 -0.26415032275103373 0.0 -0.078288630591426975 -0.13996121338344389 0.0 -0.0097105523714342539 0.039283949777541204 0.0 0.14142198385339372 0.1401225059233483 0.0 0.0021351633140629378 -0.099162720399263937 0.0 0.036907248593365742 -0.054992134028898104 0.0 -0.081500404930781298 0.07339812720295405 0.0 -0.0048344438898480502 -0.17205971756216393 0.0 0.084463533348799968 0.17525149068440607 0.0 0.018261704370649418 0.0024286927816331225 0.0 0.0709090595261027 0.07507670686059395 0.0 -0.10436598467266331 0.1595242557379099 0.0 -0.014841452139483402 0.11891756797554731 0.0 0.097858951851220691 0.075619728620477555 0.0 -0.085595617062856649 0.12468442816912093 0.0 0.10164777191401805 -0.25051431632376486 0.0 0.028684549292380762 0.40555269412783385 0.0 -0.28744876062064584 0.21321538571825632 0.0 0.0099576926140009566 -0.042423507957875625 0.0 0.10194469719551934 0.20740023594307289 0.0 -0.24886009466769146 0.1366230231456268 0.0 0.11088327187256898 0.11024202417797183 0.0 -0.06057334019033625 -0.068710374860242465 0.0 0.096217598238192273 0.028869271438185337 0.0 -0.076859785351580903 0.09875215935718358 0.0 0.047490637701728483 0.27887814126773891 0.0 -0.0025984013923420757 -0.28088251747386334 0.0 </DataArray>
<DataArray Name="radii" format="ascii" type="Float32">1 1 1 1 1 1 1 1 1 1 1 1 1 1 1 1 1 1 1 1 1 1 1 1 1 1 1 1 1 1 1 1 1 1 1 1 1 1 1 1 1 1 1 1 1 1 1 1 1 1 1 1 1 1 1 1 1 1 1 1 1 1 1 </DataArray>
</PointData>
<CellData/>
</Piece>
</UnstructuredGrid>
</VTKFile>
