<?xml version="1.0" ?>
<VTKFile byte_order="LittleEndian" type="UnstructuredGrid" version="0.1">
<UnstructuredGrid>
<Piece NumberOfCells="0" NumberOfPoints="63">
<Points>
<DataArray NumberOfComponents="3" format="ascii" type="Float32">1.0 1.0 2.0 4.0 1.0 2.0 7.0 1.0 2.0 10.0 1.0 2.0 12.627230608478365 2.8079623527914186 2.0 16.534944873601852 1.5726222054948329 2.0 18.242358110856152 1.1953782166718201 2.0 22.59599539769814 1 2.0 25.0 1.0 2.0 28.310460427683676 2.6697979425848226 2.0 31.0 1.0 2.0 33.021579467378139 1.6652261910614747 2.0 36.839626098103274 1 2.0 38.571903978461812 1.5071265122405282 2.0 43.270983295756906 1 2.0 46.0 1.0 2.0 48.430427874480735 2.2196977513736318 2.0 51.61598351146835 2.6097269663260523 2.0 55.022672024714396 1 2.0 58.0 1.0 2.0 60.398783984016042 1.0937892640911178 2.0 64.766597325281495 1.658737518777798 2.0 67.530763344992735 1.6734941227051099 2.0 70.0 1.0 2.0 72.37073021172327 1.7427386364432986 2.0 76.174894577291909 1.4611627903012783 2.0 79.0 1.0 2.0 82.0 1.0 2.0 84.550872708859671 1.651290861765687 2.0 88.227569398457888 1.2863715189791136 2.0 91.152416887729387 1.2883624006646262 2.0 94.0 1.0 2.0 96.03208227669856 1.5493934569156125 2.0 99.400887371766174 2.7270502826412777 2.0 13.009787454775283 1 2.0 14.677683033002282 1.7083640495193275 2.0 20.8649731905018 1.15404884618174 2.0 27.339792131132075 1 2.0 34.480200833154719 3.1281052684463049 2.0 41.71940894698718 1.9857516782769744 2.0 50.165054197856236 1.2768100386288874 2.0 53.073304798111984 1.2895501607963475 2.0 61.5424893499777 2.6299255482079902 2.0 62.99916299702965 1.6997171624393634 2.0 66.071405473844422 3.0095206902716938 2.0 74.155268656188156 2.5314299767568365 2.0 75.882738681520181 3.4419886149047301 2.0 85.457067629789819 3.545901698526857 2.0 89.136639790330548 2.9918458584598673 2.0 91.064789083397798 3.2785315793698677 2.0 97.542535658590396 2.6821525531274495 2.0 100.02289281808694 1 2.0 15.713764874125706 3.3038833195924764 2.0 18.462969130259467 3.5117703181866973 2.0 34.94118605595208 1.195076990783013 2.0 41.250735912035395 3.7953788202082794 2.0 59.955429277264955 3.483528814446764 2.0 62.946528290911225 3.9405061314052356 2.0 86.470981503606978 1.9264644728795077 2.0 20.447080090579423 3.9605049791140177 2.0 39.399630006809815 3.2206202092254954 2.0 19.66858015308901 2.21841250698871 2.0 40.271358704154991 1 2.0 </DataArray>
</Points>
<Cells>
<DataArray Name="connectivity" format="ascii" type="Int32">0</DataArray>
<DataArray Name="offsets" format="ascii" type="Int32">0</DataArray>
<DataArray Name="types" format="ascii" type="UInt8">1</DataArray>
</Cells>
<PointData>
<DataArray Name="Points" NumberOfComponents="3" format="ascii" type="Float32">1.0 1.0 2.0 4.0 1.0 2.0 7.0 1.0 2.0 10.0 1.0 2.0 12.627230608478365 2.8079623527914186 2.0 16.534944873601852 1.5726222054948329 2.0 18.242358110856152 1.1953782166718201 2.0 22.59599539769814 1 2.0 25.0 1.0 2.0 28.310460427683676 2.6697979425848226 2.0 31.0 1.0 2.0 33.021579467378139 1.6652261910614747 2.0 36.839626098103274 1 2.0 38.571903978461812 1.5071265122405282 2.0 43.270983295756906 1 2.0 46.0 1.0 2.0 48.430427874480735 2.2196977513736318 2.0 51.61598351146835 2.6097269663260523 2.0 55.022672024714396 1 2.0 58.0 1.0 2.0 60.398783984016042 1.0937892640911178 2.0 64.766597325281495 1.658737518777798 2.0 67.530763344992735 1.6734941227051099 2.0 70.0 1.0 2.0 72.37073021172327 1.7427386364432986 2.0 76.174894577291909 1.4611627903012783 2.0 79.0 1.0 2.0 82.0 1.0 2.0 84.550872708859671 1.651290861765687 2.0 88.227569398457888 1.2863715189791136 2.0 91.152416887729387 1.2883624006646262 2.0 94.0 1.0 2.0 96.03208227669856 1.5493934569156125 2.0 99.400887371766174 2.7270502826412777 2.0 13.009787454775283 1 2.0 14.677683033002282 1.7083640495193275 2.0 20.8649731905018 1.15404884618174 2.0 27.339792131132075 1 2.0 34.480200833154719 3.1281052684463049 2.0 41.71940894698718 1.9857516782769744 2.0 50.165054197856236 1.2768100386288874 2.0 53.073304798111984 1.2895501607963475 2.0 61.5424893499777 2.6299255482079902 2.0 62.99916299702965 1.6997171624393634 2.0 66.071405473844422 3.0095206902716938 2.0 74.155268656188156 2.5314299767568365 2.0 75.882738681520181 3.4419886149047301 2.0 85.457067629789819 3.545901698526857 2.0 89.136639790330548 2.9918458584598673 2.0 91.064789083397798 3.2785315793698677 2.0 97.542535658590396 2.6821525531274495 2.0 100.02289281808694 1 2.0 15.713764874125706 3.3038833195924764 2.0 18.462969130259467 3.5117703181866973 2.0 34.94118605595208 1.195076990783013 2.0 41.250735912035395 3.7953788202082794 2.0 59.955429277264955 3.483528814446764 2.0 62.946528290911225 3.9405061314052356 2.0 86.470981503606978 1.9264644728795077 2.0 20.447080090579423 3.9605049791140177 2.0 39.399630006809815 3.2206202092254954 2.0 19.66858015308901 2.21841250698871 2.0 40.271358704154991 1 2.0 </DataArray>
<DataArray Name="forces" NumberOfComponents="3" format="ascii" type="Float32">0.0 0.0 0.0 0.0 0.0 0.0 0.0 0.0 0.0 0.0 0.0 0.0 -0.04750698126352023 0.19664759824740843 0.0 -0.15530007407656321 -0.084416633016474077 0.0 0.024134341532173142 -0.23667890448844836 0.0 0.32484143998933024 -0.046062524556351216 0.0 0.0 0.0 0.0 0.055211775971663692 0.096671111856104969 0.0 0.0 0.0 0.0 -0.013570114911279331 0.0032639163757999133 0.0 -0.12203638436527664 -0.062485592954869676 0.0 -0.11483067581661011 0.018007623383021275 0.0 0.1638734220864298 -0.10105593599952112 0.0 0.0 0.0 0.0 -0.044767385641034788 0.023840553964493839 0.0 0.00065291528835842438 0.076904706859897698 0.0 0.036335184315903761 -0.0056094669402228835 0.0 0.0 0.0 0.0 -0.078696584425358179 -0.10200925708666005 0.0 0.17075260786770094 -0.11789738781431815 0.0 0.034465444796937673 -0.030037366068816927 0.0 0.0 0.0 0.0 -0.06768678145457864 -0.029970729369723823 0.0 0.0017914002499411124 -0.011378621227168798 0.0 0.0 0.0 0.0 0.0 0.0 0.0 -0.068900087423942796 -0.010298429733129453 0.0 0.11972389114047496 -0.15872601031182476 0.0 0.0015205433569350148 -0.027158313274356399 0.0 0.0 0.0 0.0 -0.13052817780954173 -0.094059719460354671 0.0 0.1232110343510633 0.2055823819157187 0.0 -0.17612433448334752 -0.29739351711149853 0.0 0.044849935130045537 -0.040207585368963308 0.0 0.079025276669072664 -0.26208130075250852 0.0 -0.055211775971663692 -0.096671111856104969 0.0 -0.0047366771782495426 0.019167444253425103 0.0 0.12128966497657998 0.12027334950750415 0.0 0.0010638133345496001 -0.062691663015623761 0.0 0.0067154727022230021 -0.032444130868544904 0.0 -0.076231843264804533 0.07538348827874887 0.0 -0.0025369486413636677 -0.1599498885395676 0.0 0.079704512491213408 0.13897109526703672 0.0 0.0085794326297206 -0.00099747574179220172 0.0 0.057315948574916925 0.04234682633868482 0.0 -0.073926504757552677 0.1159334187399285 0.0 -0.020299378931196863 0.084334675995016678 0.0 0.075106331922341896 0.039287395849950696 0.0 -0.070818348933149949 0.092916278686745013 0.0 0.078135492391628383 -0.20443894114210906 0.0 0.025081205526282568 0.28715822698498406 0.0 -0.19625537278931585 0.19775038870804781 0.0 -0.050495327666554873 -0.015274119570848541 0.0 0.057864766950665981 0.17603737610353837 0.0 -0.21096966209040882 0.11485690777502069 0.0 0.083512473266083187 0.080682408188556445 0.0 -0.033224795307059532 -0.043372737265585257 0.0 0.031440716701510475 0.029777392701861853 0.0 -0.040980001730441043 0.084793832794346893 0.0 0.045813847064332225 0.25550685865194184 0.0 0.0036213276547358009 -0.24272789389239635 0.0 </DataArray>
<DataArray Name="radii" format="ascii" type="Float32">1 1 1 1 1 1 1 1 1 1 1 1 1 1 1 1 1 1 1 1 1 1 1 1 1 1 1 1 1 1 1 1 1 1 1 1 1 1 1 1 1 1 1 1 1 1 1 1 1 1 1 1 1 1 1 1 1 1 1 1 1 1 1 </DataArray>
</PointData>
<CellData/>
</Piece>
</UnstructuredGrid>
</VTKFile>
