<?xml version="1.0" ?>
<VTKFile byte_order="LittleEndian" type="UnstructuredGrid" version="0.1">
<UnstructuredGrid>
<Piece NumberOfCells="0" NumberOfPoints="58">
<Points>
<DataArray NumberOfComponents="3" format="ascii" type="Float32">1.6286555283413671 1.8229024746166547 2.0 4.0486445134301388 1 2.0 7.0 1.0 2.0 9.7551364294852299 2.3551561580051166 2.0 13.0 1.0 2.0 16.0 1.0 2.0 19.0 1.0 2.0 22.0 1.0 2.0 24.69586268056219 1.9163716722531641 2.0 28.0 1.0 2.0 31.0 1.0 2.0 34.0 1.0 2.0 37.0 1.0 2.0 39.845885152762108 1.0 2.0 43.440812813073286 2.0280881029229434 2.0 45.430363926389489 1.5879045745134459 2.0 49.03351884645415 1.0 2.0 52.0 1.0 2.0 54.655447626938944 1 2.0 58.557470302970174 2.0220702680400011 2.0 60.569019271499755 1.7372068705562005 2.0 64.134564410193221 1.4943221097066488 2.0 66.804934818654218 1.7917943456843799 2.0 70.0 1.0 2.0 73.0 1.0 2.0 76.0 1.0 2.0 79.0 1.0 2.0 82.0 1.0 2.0 85.0 1.0 2.0 87.968584774947004 1.0 2.0 91.467541022284394 2.1478391791487828 2.0 94.0 1.0 2.0 97.051830363281624 2.4063910426250152 2.0 98.690619856165895 2.3830789334364511 2.0 2.9530977052114462 2.6067701946880857 2.0 10.601235697849718 1.1279529247452875 2.0 26.265155436514732 2.3478784967629704 2.0 42.018393637866644 2.2840922166825464 2.0 46.275378004256545 2.288145158609415 2.0 57.349953114098696 2.3372064146344482 2.0 61.815690560738751 2.2673543468478785 2.0 63.890685064406497 2.8550998134052223 2.0 68.039740163208393 2.8408762809617105 2.0 89.615977929132654 2.2861540274816305 2.0 96.389269152572396 1.1540795290561532 2.0 100.40425610206299 2.1117866287497611 2.0 41.542746220746679 1 2.0 47.347201783189064 2.4788622956308237 2.0 55.386392632156713 2.4521950167979307 2.0 62.158424819709261 3.4051691379321611 2.0 90.297765612912272 1 2.0 99.089490156902826 1.0331288464123862 2.0 48.263658440842534 3.0071901183766947 2.0 56.030483919228374 1.9809578644318082 2.0 48.436889792166156 4.3782187265013706 2.0 57.081878934223703 1.880701968523266 2.0 48.925359263985435 3.6621868876794319 2.0 56.257375631230786 1.3558124508429203 2.0 </DataArray>
</Points>
<Cells>
<DataArray Name="connectivity" format="ascii" type="Int32">0</DataArray>
<DataArray Name="offsets" format="ascii" type="Int32">0</DataArray>
<DataArray Name="types" format="ascii" type="UInt8">1</DataArray>
</Cells>
<PointData>
<DataArray Name="Points" NumberOfComponents="3" format="ascii" type="Float32">1.6286555283413671 1.8229024746166547 2.0 4.0486445134301388 1 2.0 7.0 1.0 2.0 9.7551364294852299 2.3551561580051166 2.0 13.0 1.0 2.0 16.0 1.0 2.0 19.0 1.0 2.0 22.0 1.0 2.0 24.69586268056219 1.9163716722531641 2.0 28.0 1.0 2.0 31.0 1.0 2.0 34.0 1.0 2.0 37.0 1.0 2.0 39.845885152762108 1.0 2.0 43.440812813073286 2.0280881029229434 2.0 45.430363926389489 1.5879045745134459 2.0 49.03351884645415 1.0 2.0 52.0 1.0 2.0 54.655447626938944 1 2.0 58.557470302970174 2.0220702680400011 2.0 60.569019271499755 1.7372068705562005 2.0 64.134564410193221 1.4943221097066488 2.0 66.804934818654218 1.7917943456843799 2.0 70.0 1.0 2.0 73.0 1.0 2.0 76.0 1.0 2.0 79.0 1.0 2.0 82.0 1.0 2.0 85.0 1.0 2.0 87.968584774947004 1.0 2.0 91.467541022284394 2.1478391791487828 2.0 94.0 1.0 2.0 97.051830363281624 2.4063910426250152 2.0 98.690619856165895 2.3830789334364511 2.0 2.9530977052114462 2.6067701946880857 2.0 10.601235697849718 1.1279529247452875 2.0 26.265155436514732 2.3478784967629704 2.0 42.018393637866644 2.2840922166825464 2.0 46.275378004256545 2.288145158609415 2.0 57.349953114098696 2.3372064146344482 2.0 61.815690560738751 2.2673543468478785 2.0 63.890685064406497 2.8550998134052223 2.0 68.039740163208393 2.8408762809617105 2.0 89.615977929132654 2.2861540274816305 2.0 96.389269152572396 1.1540795290561532 2.0 100.40425610206299 2.1117866287497611 2.0 41.542746220746679 1 2.0 47.347201783189064 2.4788622956308237 2.0 55.386392632156713 2.4521950167979307 2.0 62.158424819709261 3.4051691379321611 2.0 90.297765612912272 1 2.0 99.089490156902826 1.0331288464123862 2.0 48.263658440842534 3.0071901183766947 2.0 56.030483919228374 1.9809578644318082 2.0 48.436889792166156 4.3782187265013706 2.0 57.081878934223703 1.880701968523266 2.0 48.925359263985435 3.6621868876794319 2.0 56.257375631230786 1.3558124508429203 2.0 </DataArray>
<DataArray Name="forces" NumberOfComponents="3" format="ascii" type="Float32">-0.43967074446618987 -0.25915048337115903 0.0 0.032781178801135437 -0.046855675001613376 0.0 0.0 0.0 0.0 -0.32026667206327392 0.46452267500614525 0.0 0.0 0.0 0.0 0.0 0.0 0.0 0.0 0.0 0.0 0.0 0.0 0.0 -0.39779313411880457 -0.10938077134703851 0.0 0.0 0.0 0.0 0.0 0.0 0.0 0.0 0.0 0.0 0.0 0.0 0.0 -0.32274776007475481 0.0 0.0 0.59962806191434037 -0.094670887280861649 0.0 -0.74696253781639976 -0.59654687191560707 0.0 0.0 0.0 0.0 0.0 0.0 0.0 -0.81600984945039112 -0.65676014552219097 0.0 1.2766488543456278 -0.089334737863472236 0.0 -0.62239978103091076 -0.28178123013189893 0.0 0.12369214374579796 -0.66808082049977302 0.0 -0.32053036678016472 -0.27232034504863456 0.0 0.0 0.0 0.0 0.0 0.0 0.0 0.0 0.0 0.0 0.0 0.0 0.0 0.0 0.0 0.0 0.0 0.0 0.0 0.0 0.0 0.0 0.46275660177998418 0.25861625117157783 0.0 0.0 0.0 0.0 -0.052558575473420244 0.56616488511227836 0.0 -0.1401902868764284 0.6724548213873085 0.0 0.40688956566505441 0.3060061583727724 0.0 0.32026667206327392 -0.46452267500614525 0.0 0.39779313411880457 0.10938077134703851 0.0 -0.3576656750645818 0.70324653036178675 0.0 -0.14614726408410528 0.40572102898633361 0.0 1.7915086700968823 2.0579156086171659 0.0 0.34680677727280973 -0.5480797703199517 0.0 0.052314059606642593 0.61360003049591838 0.0 0.32053036678016472 0.27232034504863456 0.0 -0.45589642920407891 0.52427585432949253 0.0 -0.30409333135848449 -0.5599834513512516 0.0 0.5775964065984216 0.17844740464934389 0.0 0.08078537322499621 -0.60857564308092515 0.0 0.040714821929267481 -0.34240181789719032 0.0 -1.9728499275895748 1.8309454435380326 0.0 0.099586800405660481 0.88434179045570527 0.0 -0.0068601725759052656 -0.78289210550107025 0.0 -0.080754212890088523 -0.8570836597976792 0.0 -0.13459540394075975 -1.1085317438846833 0.0 -1.0626982756268326 0.6980163653480882 0.0 -0.55562055533147814 1.8246656233156362 0.0 0.90370816626101858 -0.93364163013123458 0.0 1.5426109392434755 -0.18290621860448908 0.0 -0.12030763803673017 -2.9071409039863885 0.0 </DataArray>
<DataArray Name="radii" format="ascii" type="Float32">1 1 1 1 1 1 1 1 1 1 1 1 1 1 1 1 1 1 1 1 1 1 1 1 1 1 1 1 1 1 1 1 1 1 1 1 1 1 1 1 1 1 1 1 1 1 1 1 1 1 1 1 1 1 1 1 1 1 </DataArray>
</PointData>
<CellData/>
</Piece>
</UnstructuredGrid>
</VTKFile>
