<?xml version="1.0" ?>
<VTKFile byte_order="LittleEndian" type="UnstructuredGrid" version="0.1">
<UnstructuredGrid>
<Piece NumberOfCells="0" NumberOfPoints="59">
<Points>
<DataArray NumberOfComponents="3" format="ascii" type="Float32">1.0 1.0 2.0 4.0 1.0 2.0 7.0 1.0 2.0 10.0 1.0 2.0 12.861318381459371 2.15660244632832 2.0 16.331328435982222 1.9997780271507941 2.0 18.769167244079377 1.9672039495537759 2.0 22.028776014581613 1.0 2.0 25.0 1.0 2.0 28.057445708099085 2.1496908970779933 2.0 31.0 1.0 2.0 33.658846901320778 1.7879478121750005 2.0 37.0 1.0 2.0 39.650623052158956 1.8885225642568488 2.0 43.010662158996666 1.0 2.0 46.0 1.0 2.0 48.803544266156294 2.0568713366728795 2.0 51.849654766551673 2.1316982966387612 2.0 55.0 1.0 2.0 58.0 1.0 2.0 60.739818692383103 1.7378065722995062 2.0 64.218145683286807 1.9353165937850738 2.0 67.193052605447264 1.9078216039311802 2.0 70.0 1.0 2.0 72.787682266403323 1.9280118253076304 2.0 76.092752691974852 1.826278842488039 2.0 79.0 1.0 2.0 82.0 1.0 2.0 84.790703353850773 1.8635023150522392 2.0 87.936977071310437 1.8919246010666175 2.0 91.08657247019795 1.7755483289646261 2.0 94.0 1.0 2.0 96.683560347482171 1.9117481012431716 2.0 99.064410428595735 2.1376749945934121 2.0 13.285662627591213 1 2.0 15.020043742458345 1.9825783711515317 2.0 20.108858731679195 1.921550886184463 2.0 27.592806850716666 1 2.0 34.374870535548219 2.43377054351508 2.0 40.6562138558279 1.9975732164347066 2.0 50.020171833209822 1.5834133680009321 2.0 52.634071540713919 1.6201981850725962 2.0 61.463470197150706 2.6514315177347427 2.0 63.081433383443795 2.2580743338800593 2.0 66.143047904136921 2.5844101143528553 2.0 73.899743717384837 2.4212128590333974 2.0 75.803453450960504 3.001816491577078 2.0 85.747487344380104 2.8494191936279307 2.0 88.956047213620792 2.6219320446937333 2.0 90.926389811011433 2.7591641710194503 2.0 97.537307253319781 2.2857553321534847 2.0 99.713120095744401 1.1266206874950917 2.0 15.674953603202914 2.2270581109507068 2.0 19.511899100532972 2.791635206392344 2.0 34.436346888870837 1.7638535242538413 2.0 40.597612300516126 2.931449615257685 2.0 60.764298797429433 2.8862464648471247 2.0 62.607892780040196 3.2281120515145321 2.0 86.616159737800615 2.2072777362209295 2.0 </DataArray>
</Points>
<Cells>
<DataArray Name="connectivity" format="ascii" type="Int32">0</DataArray>
<DataArray Name="offsets" format="ascii" type="Int32">0</DataArray>
<DataArray Name="types" format="ascii" type="UInt8">1</DataArray>
</Cells>
<PointData>
<DataArray Name="Points" NumberOfComponents="3" format="ascii" type="Float32">1.0 1.0 2.0 4.0 1.0 2.0 7.0 1.0 2.0 10.0 1.0 2.0 12.861318381459371 2.15660244632832 2.0 16.331328435982222 1.9997780271507941 2.0 18.769167244079377 1.9672039495537759 2.0 22.028776014581613 1.0 2.0 25.0 1.0 2.0 28.057445708099085 2.1496908970779933 2.0 31.0 1.0 2.0 33.658846901320778 1.7879478121750005 2.0 37.0 1.0 2.0 39.650623052158956 1.8885225642568488 2.0 43.010662158996666 1.0 2.0 46.0 1.0 2.0 48.803544266156294 2.0568713366728795 2.0 51.849654766551673 2.1316982966387612 2.0 55.0 1.0 2.0 58.0 1.0 2.0 60.739818692383103 1.7378065722995062 2.0 64.218145683286807 1.9353165937850738 2.0 67.193052605447264 1.9078216039311802 2.0 70.0 1.0 2.0 72.787682266403323 1.9280118253076304 2.0 76.092752691974852 1.826278842488039 2.0 79.0 1.0 2.0 82.0 1.0 2.0 84.790703353850773 1.8635023150522392 2.0 87.936977071310437 1.8919246010666175 2.0 91.08657247019795 1.7755483289646261 2.0 94.0 1.0 2.0 96.683560347482171 1.9117481012431716 2.0 99.064410428595735 2.1376749945934121 2.0 13.285662627591213 1 2.0 15.020043742458345 1.9825783711515317 2.0 20.108858731679195 1.921550886184463 2.0 27.592806850716666 1 2.0 34.374870535548219 2.43377054351508 2.0 40.6562138558279 1.9975732164347066 2.0 50.020171833209822 1.5834133680009321 2.0 52.634071540713919 1.6201981850725962 2.0 61.463470197150706 2.6514315177347427 2.0 63.081433383443795 2.2580743338800593 2.0 66.143047904136921 2.5844101143528553 2.0 73.899743717384837 2.4212128590333974 2.0 75.803453450960504 3.001816491577078 2.0 85.747487344380104 2.8494191936279307 2.0 88.956047213620792 2.6219320446937333 2.0 90.926389811011433 2.7591641710194503 2.0 97.537307253319781 2.2857553321534847 2.0 99.713120095744401 1.1266206874950917 2.0 15.674953603202914 2.2270581109507068 2.0 19.511899100532972 2.791635206392344 2.0 34.436346888870837 1.7638535242538413 2.0 40.597612300516126 2.931449615257685 2.0 60.764298797429433 2.8862464648471247 2.0 62.607892780040196 3.2281120515145321 2.0 86.616159737800615 2.2072777362209295 2.0 </DataArray>
<DataArray Name="forces" NumberOfComponents="3" format="ascii" type="Float32">0.0 0.0 0.0 0.0 0.0 0.0 0.0 0.0 0.0 0.0 0.0 0.0 -0.26887277747079547 0.74636728122758744 0.0 2.1185084340192368 -0.40878466582146028 0.0 -2.1968795316543677 -1.4321705167995409 0.0 0.0 0.0 0.0 0.0 0.0 0.0 0.28980058381196833 0.73009522875367483 0.0 0.0 0.0 0.0 -2.1892800615660413 -0.75790201226943343 0.0 0.0 0.0 0.0 -2.2832147552199391 -1.4306039947208784 0.0 0.0 0.0 0.0 0.0 0.0 0.0 -0.68540637184526609 0.26615534610987446 0.0 -0.89128462473560721 0.62925821598365683 0.0 0.0 0.0 0.0 0.0 0.0 0.0 -0.59809104317978035 -1.6396277530079335 0.0 0.80247112500804019 -0.2418210234297975 0.0 0.6694798811172249 -0.43139082611449964 0.0 0.0 0.0 0.0 -0.75963983075848129 -0.33690148099160649 0.0 0.20008071192603422 -0.81300735149157966 0.0 0.0 0.0 0.0 0.0 0.0 0.0 -0.63790483113477769 -0.4997116409761132 0.0 -0.020860661918190138 -0.59014690328943542 0.0 0.17115754672023897 -1.050423916233487 0.0 0.0 0.0 0.0 -1.0295988320307099 -0.44290314920558393 0.0 -0.01265258826017801 0.65790775919951783 0.0 0.26887277747079547 -0.74636728122758744 0.0 -2.103573200544349 -0.45976131834672546 0.0 2.025600645460651 -1.7002588130880676 0.0 -0.28980058381196833 -0.73009522875367483 0.0 0.75687914332126693 2.1955064397520969 0.0 1.2288384435784971 -2.0668972004971455 0.0 0.63192832414399125 -0.28106659831474695 0.0 0.94476267243688206 -0.61434696377878439 0.0 0.8722699755226293 0.068369443330224655 0.0 -0.045373197988697489 -0.67831953300759706 0.0 -0.6694798811172249 0.43139082611449964 0.0 0.75963983075848129 0.33690148099160649 0.0 -0.20008071192603422 0.81300735149157966 0.0 -0.31140716823280695 1.0217368950999164 0.0 0.6349486070542486 0.44652967559579987 0.0 -0.16807201314949413 1.0506096089501562 0.0 0.58348813050822179 0.48709513258209747 0.0 0.45876328978266612 -0.70209974257603136 0.0 -0.014935233474888232 0.86854598416818574 0.0 0.17127888619371667 3.1324293298876085 0.0 1.4324009182447743 -1.4376044274826636 0.0 1.054376311641442 3.4975011952180237 0.0 -1.4030911234259733 1.3015497223120258 0.0 0.37181426406378149 1.1898491438030776 0.0 0.33213852066078137 -0.37859371914683682 0.0 </DataArray>
<DataArray Name="radii" format="ascii" type="Float32">1 1 1 1 1 1 1 1 1 1 1 1 1 1 1 1 1 1 1 1 1 1 1 1 1 1 1 1 1 1 1 1 1 1 1 1 1 1 1 1 1 1 1 1 1 1 1 1 1 1 1 1 1 2 1 2 1 1 1 </DataArray>
</PointData>
<CellData/>
</Piece>
</UnstructuredGrid>
</VTKFile>
