<?xml version="1.0" ?>
<VTKFile byte_order="LittleEndian" type="UnstructuredGrid" version="0.1">
<UnstructuredGrid>
<Piece NumberOfCells="0" NumberOfPoints="63">
<Points>
<DataArray NumberOfComponents="3" format="ascii" type="Float32">1.0 1.0 2.0 4.0 1.0 2.0 7.0 1.0 2.0 10.0 1.0 2.0 12.594035203631199 3.0057700190167602 2.0 16.476393040936522 1.5875139226655282 2.0 18.437593371716336 1 2.0 23.000259582365338 1.0 2.0 25.000499088707453 1.0 2.0 28.339504690171488 2.7193027168559385 2.0 30.904645204266973 1.0 2.0 32.753672135272339 1.807434616558288 2.0 36.655912057494227 1 2.0 38.57155261315453 1.6772054987613654 2.0 43.570504726215646 1 2.0 46.0 1.0 2.0 48.416279059710128 2.2274306428623909 2.0 51.607772781243604 2.6426923009903254 2.0 55.050335613390978 1.0 2.0 58.0 1.0 2.0 60.357236073306098 1.0364630242838537 2.0 65.002470067661363 1.5272858109102947 2.0 67.539090038726712 1.6657713016767373 2.0 70.0 1.0 2.0 72.325875090850943 1.7229443783086817 2.0 76.174894577291909 1.4611627903012783 2.0 79.0 1.0 2.0 82.0 1.0 2.0 84.479312715376153 1.6412858818753633 2.0 88.329032925542194 1.1923258782873332 2.0 91.152550021235129 1.2853387233990858 2.0 93.998985396877359 1.0 2.0 95.94205813664756 1.4793073674499591 2.0 99.484144820363838 2.909206198113325 2.0 12.582457695226193 1 2.0 14.516346692244333 1.8914250864433646 2.0 21.005726933262206 1 2.0 27.310747868644263 1.0 2.0 34.475805835288114 3.1485521910201868 2.0 42.013065160256339 2.2612963182534345 2.0 50.16542185170173 1.2562923886733075 2.0 53.067633100585248 1.27337874470974 2.0 61.455674006899116 2.7273511043191787 2.0 62.999539559187205 1.4556456025613316 2.0 66.17604453063727 3.1468759330758589 2.0 74.157371756309587 2.5286580059654091 2.0 75.925490702271077 3.4645548438307738 2.0 85.412884633677649 3.6170362553267053 2.0 89.11895536446022 3.0332907363276576 2.0 91.106274800916665 3.2874771202325435 2.0 97.489961447737386 2.7466159489695494 2.0 100.08324832351592 1.0 2.0 15.707914615106587 3.5069245854591062 2.0 18.154434140278259 3.8176356637576458 2.0 34.638059629626589 1.1318513014216014 2.0 41.318582809431312 4.1420647743127521 2.0 59.671707238228784 3.6328473231871152 2.0 63.009398528671696 3.9969791523307014 2.0 86.46132654096408 1.9120137951968375 2.0 20.644360340079672 4.3647781335002689 2.0 39.408308264087488 3.4964297927490731 2.0 19.725346213413395 2.5520388249206629 2.0 40.456504863700751 1.0 2.0 </DataArray>
</Points>
<Cells>
<DataArray Name="connectivity" format="ascii" type="Int32">0</DataArray>
<DataArray Name="offsets" format="ascii" type="Int32">0</DataArray>
<DataArray Name="types" format="ascii" type="UInt8">1</DataArray>
</Cells>
<PointData>
<DataArray Name="Points" NumberOfComponents="3" format="ascii" type="Float32">1.0 1.0 2.0 4.0 1.0 2.0 7.0 1.0 2.0 10.0 1.0 2.0 12.594035203631199 3.0057700190167602 2.0 16.476393040936522 1.5875139226655282 2.0 18.437593371716336 1 2.0 23.000259582365338 1.0 2.0 25.000499088707453 1.0 2.0 28.339504690171488 2.7193027168559385 2.0 30.904645204266973 1.0 2.0 32.753672135272339 1.807434616558288 2.0 36.655912057494227 1 2.0 38.57155261315453 1.6772054987613654 2.0 43.570504726215646 1 2.0 46.0 1.0 2.0 48.416279059710128 2.2274306428623909 2.0 51.607772781243604 2.6426923009903254 2.0 55.050335613390978 1.0 2.0 58.0 1.0 2.0 60.357236073306098 1.0364630242838537 2.0 65.002470067661363 1.5272858109102947 2.0 67.539090038726712 1.6657713016767373 2.0 70.0 1.0 2.0 72.325875090850943 1.7229443783086817 2.0 76.174894577291909 1.4611627903012783 2.0 79.0 1.0 2.0 82.0 1.0 2.0 84.479312715376153 1.6412858818753633 2.0 88.329032925542194 1.1923258782873332 2.0 91.152550021235129 1.2853387233990858 2.0 93.998985396877359 1.0 2.0 95.94205813664756 1.4793073674499591 2.0 99.484144820363838 2.909206198113325 2.0 12.582457695226193 1 2.0 14.516346692244333 1.8914250864433646 2.0 21.005726933262206 1 2.0 27.310747868644263 1.0 2.0 34.475805835288114 3.1485521910201868 2.0 42.013065160256339 2.2612963182534345 2.0 50.16542185170173 1.2562923886733075 2.0 53.067633100585248 1.27337874470974 2.0 61.455674006899116 2.7273511043191787 2.0 62.999539559187205 1.4556456025613316 2.0 66.17604453063727 3.1468759330758589 2.0 74.157371756309587 2.5286580059654091 2.0 75.925490702271077 3.4645548438307738 2.0 85.412884633677649 3.6170362553267053 2.0 89.11895536446022 3.0332907363276576 2.0 91.106274800916665 3.2874771202325435 2.0 97.489961447737386 2.7466159489695494 2.0 100.08324832351592 1.0 2.0 15.707914615106587 3.5069245854591062 2.0 18.154434140278259 3.8176356637576458 2.0 34.638059629626589 1.1318513014216014 2.0 41.318582809431312 4.1420647743127521 2.0 59.671707238228784 3.6328473231871152 2.0 63.009398528671696 3.9969791523307014 2.0 86.46132654096408 1.9120137951968375 2.0 20.644360340079672 4.3647781335002689 2.0 39.408308264087488 3.4964297927490731 2.0 19.725346213413395 2.5520388249206629 2.0 40.456504863700751 1.0 2.0 </DataArray>
<DataArray Name="forces" NumberOfComponents="3" format="ascii" type="Float32">0.0 0.0 0.0 0.0 0.0 0.0 0.0 0.0 0.0 0.0 0.0 0.0 0.0 0.0 0.0 0.0 0.0 0.0 -0.0080268382621982385 -0.0096603444624684814 0.0 0.0 0.0 0.0 0.0 0.0 0.0 0.0 0.0 0.0 0.0 0.0 0.0 0.0 0.0 0.0 0.010645734807101924 -0.00070132189705704765 0.0 -0.00048796839348258134 -0.0010609118147357395 0.0 0.0021726005634499727 -0.0017632780510947453 0.0 0.0 0.0 0.0 0.0 0.0 0.0 0.0 0.0 0.0 0.0 0.0 0.0 0.0 0.0 0.0 0.0 0.0 0.0 0.0 0.0 0.0 0.0 0.0 0.0 0.0 0.0 0.0 0.0 0.0 0.0 0.0 0.0 0.0 0.0 0.0 0.0 0.0 0.0 0.0 0.0 0.0 0.0 0.0 0.0 0.0 0.0 0.0 0.0 0.0 0.0 0.0 0.0 0.0 0.0 0.0 0.0 0.0 -0.064865504848720085 -0.031530118977201538 0.0 0.064865504848720085 0.031530118977201538 0.0 0.0046270927694028506 -0.0055323549120263552 0.0 0.0 0.0 0.0 0.0 0.0 0.0 -0.0021726005634499727 0.0017632780510947453 0.0 0.0 0.0 0.0 0.0 0.0 0.0 0.0 0.0 0.0 0.0 0.0 0.0 0.0 0.0 0.0 0.0 0.0 0.0 0.0 0.0 0.0 0.0 0.0 0.0 0.0 0.0 0.0 0.0 0.0 0.0 0.0 0.0 0.0 0.0 0.0 0.0 0.0 0.0 0.0 0.0 0.0 0.0 -0.010645734807101924 0.00070132189705704765 0.0 0.0 0.0 0.0 0.0 0.0 0.0 0.0 0.0 0.0 0.0 0.0 0.0 0.0 0.0 0.0 0.00048796839348258134 0.0010609118147357395 0.0 0.0033997454927953879 0.015192699374494837 0.0 0.0 0.0 0.0 </DataArray>
<DataArray Name="radii" format="ascii" type="Float32">1 1 1 1 1 1 1 1 1 1 1 1 1 1 1 1 1 1 1 1 1 1 1 1 1 1 1 1 1 1 1 1 1 1 1 1 1 1 1 1 1 1 1 1 1 1 1 1 1 1 1 1 1 1 1 1 1 1 1 1 1 1 1 </DataArray>
</PointData>
<CellData/>
</Piece>
</UnstructuredGrid>
</VTKFile>
