<?xml version="1.0" ?>
<VTKFile byte_order="LittleEndian" type="UnstructuredGrid" version="0.1">
<UnstructuredGrid>
<Piece NumberOfCells="0" NumberOfPoints="34">
<Points>
<DataArray NumberOfComponents="3" format="ascii" type="Float32">1.0 1.0 2.0 4.0 1.0 2.0 7.0 1.0 2.0 10.0 1.0 2.0 12.949999999999999 2.0 2.0 16.0 2.0 2.0 19.050000000000001 2.0 2.0 22.0 1.0 2.0 25.0 1.0 2.0 28.0 2.0 2.0 31.0 1.0 2.0 34.0 2.0 2.0 37.0 1.0 2.0 40.0 2.0 2.0 43.0 1.0 2.0 46.0 1.0 2.0 48.950000000000003 2.0 2.0 52.049999999999997 2.0 2.0 55.0 1.0 2.0 58.0 1.0 2.0 60.950000000000003 2.0 2.0 64.0 2.0 2.0 67.049999999999997 2.0 2.0 70.0 1.0 2.0 72.950000000000003 2.0 2.0 76.049999999999997 2.0 2.0 79.0 1.0 2.0 82.0 1.0 2.0 84.950000000000003 2.0 2.0 88.0 2.0 2.0 91.049999999999997 2.0 2.0 94.0 1.0 2.0 96.900000000000006 2.0 2.0 99.099999999999994 2.0 2.0 </DataArray>
</Points>
<Cells>
<DataArray Name="connectivity" format="ascii" type="Int32">0</DataArray>
<DataArray Name="offsets" format="ascii" type="Int32">0</DataArray>
<DataArray Name="types" format="ascii" type="UInt8">1</DataArray>
</Cells>
<PointData>
<DataArray Name="Points" NumberOfComponents="3" format="ascii" type="Float32">1.0 1.0 2.0 4.0 1.0 2.0 7.0 1.0 2.0 10.0 1.0 2.0 12.949999999999999 2.0 2.0 16.0 2.0 2.0 19.050000000000001 2.0 2.0 22.0 1.0 2.0 25.0 1.0 2.0 28.0 2.0 2.0 31.0 1.0 2.0 34.0 2.0 2.0 37.0 1.0 2.0 40.0 2.0 2.0 43.0 1.0 2.0 46.0 1.0 2.0 48.950000000000003 2.0 2.0 52.049999999999997 2.0 2.0 55.0 1.0 2.0 58.0 1.0 2.0 60.950000000000003 2.0 2.0 64.0 2.0 2.0 67.049999999999997 2.0 2.0 70.0 1.0 2.0 72.950000000000003 2.0 2.0 76.049999999999997 2.0 2.0 79.0 1.0 2.0 82.0 1.0 2.0 84.950000000000003 2.0 2.0 88.0 2.0 2.0 91.049999999999997 2.0 2.0 94.0 1.0 2.0 96.900000000000006 2.0 2.0 99.099999999999994 2.0 2.0 </DataArray>
<DataArray Name="forces" NumberOfComponents="3" format="ascii" type="Float32">0.0 0.0 0.0 0.0 0.0 0.0 0.0 0.0 0.0 0.0 0.0 0.0 -1.0 0.0 0.0 0.0 0.0 0.0 1.0 0.0 0.0 0.0 0.0 0.0 0.0 0.0 0.0 0.0 0.0 0.0 0.0 0.0 0.0 0.0 0.0 0.0 0.0 0.0 0.0 0.0 0.0 0.0 0.0 0.0 0.0 0.0 0.0 0.0 -1.0 0.0 0.0 1.0 0.0 0.0 0.0 0.0 0.0 0.0 0.0 0.0 -1.0 0.0 0.0 0.0 0.0 0.0 1.0 0.0 0.0 0.0 0.0 0.0 -1.0 0.0 0.0 1.0 0.0 0.0 0.0 0.0 0.0 0.0 0.0 0.0 -1.0 0.0 0.0 0.0 0.0 0.0 1.0 0.0 0.0 0.0 0.0 0.0 -2.0 0.0 0.0 2.0 0.0 0.0 </DataArray>
<DataArray Name="radii" format="ascii" type="Float32">1 1 1 1 2 2 2 1 1 2 1 2 1 2 1 1 2 2 1 1 2 2 2 1 2 2 1 1 2 2 2 1 2 2 </DataArray>
</PointData>
<CellData/>
</Piece>
</UnstructuredGrid>
</VTKFile>
