<?xml version="1.0" ?>
<VTKFile byte_order="LittleEndian" type="UnstructuredGrid" version="0.1">
<UnstructuredGrid>
<Piece NumberOfCells="0" NumberOfPoints="46">
<Points>
<DataArray NumberOfComponents="3" format="ascii" type="Float32">1.8987280642072837 1.9789653144017905 2.0 4.0351070537093845 1 2.0 7.0 1.0 2.0 9.9513554853541848 2.0705552030190186 2.0 13.0 1.0 2.0 16.0 1.0 2.0 19.0 1.0 2.0 22.0 1.0 2.0 24.939580182308749 1.9833864245084158 2.0 28.0 1.0 2.0 31.0 1.0 2.0 34.0 1.0 2.0 37.0 1.0 2.0 40.0 1.0 2.0 43.027440736581589 2.0287673401427999 2.0 45.949999999999996 1.9345846979799524 2.0 49.0 1.0 2.0 52.0 1.0 2.0 55.0 1.0 2.0 58.011975196689846 2.0147395715147627 2.0 60.934180137011133 1.9595152592345415 2.0 64.022994616936671 1.9013924854067101 2.0 67.001315433414234 1.9586379346694747 2.0 70.0 1.0 2.0 73.0 1.0 2.0 76.0 1.0 2.0 79.0 1.0 2.0 82.0 1.0 2.0 85.0 1.0 2.0 88.0 1.0 2.0 91.064170937447784 2.0053060573297365 2.0 94.0 1.0 2.0 96.948293556135994 2.0789463826344705 2.0 99.02821642325118 2.024742895407404 2.0 2.6965626290662832 2.4336013366700251 2.0 10.405016641980763 1.4125538797313846 2.0 26.021437934768173 2.2808637445077196 2.0 42.237674761858436 1.735388591037855 2.0 46.222560477494135 2.1128809575200251 2.0 56.934608036916146 1.7585091576184881 2.0 61.71549464717765 2.4400892678090069 2.0 63.890981530842332 2.4675024732096564 2.0 67.843359548448376 2.674032691976616 2.0 89.970099998167257 1.9148413803668221 2.0 96.581291817788156 1.4790017527228021 2.0 99.913253158246604 1.7196818722944194 2.0 </DataArray>
</Points>
<Cells>
<DataArray Name="connectivity" format="ascii" type="Int32">0</DataArray>
<DataArray Name="offsets" format="ascii" type="Int32">0</DataArray>
<DataArray Name="types" format="ascii" type="UInt8">1</DataArray>
</Cells>
<PointData>
<DataArray Name="Points" NumberOfComponents="3" format="ascii" type="Float32">1.8987280642072837 1.9789653144017905 2.0 4.0351070537093845 1 2.0 7.0 1.0 2.0 9.9513554853541848 2.0705552030190186 2.0 13.0 1.0 2.0 16.0 1.0 2.0 19.0 1.0 2.0 22.0 1.0 2.0 24.939580182308749 1.9833864245084158 2.0 28.0 1.0 2.0 31.0 1.0 2.0 34.0 1.0 2.0 37.0 1.0 2.0 40.0 1.0 2.0 43.027440736581589 2.0287673401427999 2.0 45.949999999999996 1.9345846979799524 2.0 49.0 1.0 2.0 52.0 1.0 2.0 55.0 1.0 2.0 58.011975196689846 2.0147395715147627 2.0 60.934180137011133 1.9595152592345415 2.0 64.022994616936671 1.9013924854067101 2.0 67.001315433414234 1.9586379346694747 2.0 70.0 1.0 2.0 73.0 1.0 2.0 76.0 1.0 2.0 79.0 1.0 2.0 82.0 1.0 2.0 85.0 1.0 2.0 88.0 1.0 2.0 91.064170937447784 2.0053060573297365 2.0 94.0 1.0 2.0 96.948293556135994 2.0789463826344705 2.0 99.02821642325118 2.024742895407404 2.0 2.6965626290662832 2.4336013366700251 2.0 10.405016641980763 1.4125538797313846 2.0 26.021437934768173 2.2808637445077196 2.0 42.237674761858436 1.735388591037855 2.0 46.222560477494135 2.1128809575200251 2.0 56.934608036916146 1.7585091576184881 2.0 61.71549464717765 2.4400892678090069 2.0 63.890981530842332 2.4675024732096564 2.0 67.843359548448376 2.674032691976616 2.0 89.970099998167257 1.9148413803668221 2.0 96.581291817788156 1.4790017527228021 2.0 99.913253158246604 1.7196818722944194 2.0 </DataArray>
<DataArray Name="forces" NumberOfComponents="3" format="ascii" type="Float32">-1.0744930694448278 -0.61030345035170552 0.0 0.015098383544358489 -0.014999232793228014 0.0 0.0 0.0 0.0 -0.77886846755170169 1.1296900226745257 0.0 0.0 0.0 0.0 0.0 0.0 0.0 0.0 0.0 0.0 0.0 0.0 0.0 -0.96740796280073982 -0.2660071783612265 0.0 0.0 0.0 0.0 0.0 0.0 0.0 0.0 0.0 0.0 0.0 0.0 0.0 0.0 0.0 0.0 1.2399372933729607 0.46060638688042932 0.0 -1.6011434654507437 -1.0473928336988609 0.0 0.0 0.0 0.0 0.0 0.0 0.0 0.0 0.0 0.0 0.99231181199963081 0.23600168614405848 0.0 -1.0538704352149029 -0.64821878127081112 0.0 0.36817680648696011 -1.57884777635385 0.0 -0.77950975657099342 -0.66226600621517429 0.0 0.0 0.0 0.0 0.0 0.0 0.0 0.0 0.0 0.0 0.0 0.0 0.0 0.0 0.0 0.0 0.0 0.0 0.0 0.0 0.0 0.0 1.0274687716637123 0.084957590208149261 0.0 0.0 0.0 0.0 0.77324911830517884 1.2640448467615664 0.0 -1.1493580483804122 0.39616925297895872 0.0 1.0593946859004693 0.62530268314493354 0.0 0.77886846755170169 -1.1296900226745257 0.0 0.96740796280073982 0.2660071783612265 0.0 -1.2399372933729607 -0.46060638688042932 0.0 1.6011434654507437 1.0473928336988609 0.0 -0.99231181199963081 -0.23600168614405848 0.0 1.0538704352149029 0.64821878127081112 0.0 -0.36817680648696011 1.57884777635385 0.0 0.77950975657099342 0.66226600621517429 0.0 -1.0274687716637123 -0.084957590208149261 0.0 -0.77324911830517884 -1.2640448467615664 0.0 1.1493580483804122 -0.39616925297895872 0.0 </DataArray>
<DataArray Name="radii" format="ascii" type="Float32">1 1 1 1 1 1 1 1 1 1 1 1 1 1 1 1 1 1 1 1 1 1 1 1 1 1 1 1 1 1 1 1 1 1 1 1 1 1 1 1 1 1 1 1 1 1 </DataArray>
</PointData>
<CellData/>
</Piece>
</UnstructuredGrid>
</VTKFile>
