<?xml version="1.0" ?>
<VTKFile byte_order="LittleEndian" type="UnstructuredGrid" version="0.1">
<UnstructuredGrid>
<Piece NumberOfCells="0" NumberOfPoints="63">
<Points>
<DataArray NumberOfComponents="3" format="ascii" type="Float32">1.0 1.0 2.0 4.0 1.0 2.0 7.0 1.0 2.0 10.0 1.0 2.0 12.800749534104888 2.3136420504809037 2.0 16.660112758503299 1.8967357608940809 2.0 18.396061741609071 1.7261062915557717 2.0 22.053157294813058 1 2.0 25.0 1.0 2.0 28.122040756123585 2.3014410793587978 2.0 31.0 1.0 2.0 33.303929078276909 1.6859968046015104 2.0 37.0 1.0 2.0 39.18672059306428 1.6470250002315328 2.0 43.010662158996666 1.0 2.0 46.0 1.0 2.0 48.672526875171009 2.1087142785542397 2.0 51.709718247451342 2.2648348656174546 2.0 55.0 1.0 2.0 58.0 1.0 2.0 60.64081664449899 1.4610908190222358 2.0 64.380354410970497 1.8876658385378979 2.0 67.319269862398443 1.8261939498847464 2.0 70.0 1.0 2.0 72.64389057592669 1.8641950318813381 2.0 76.129966981470176 1.6732760513400706 2.0 79.0 1.0 2.0 82.0 1.0 2.0 84.689705472586525 1.7666908986498984 2.0 87.963192872920089 1.7557759824889343 2.0 91.117944019166359 1.5776750172349157 2.0 94.0 1.0 2.0 96.481826984351414 1.8182927735735865 2.0 99.099457722959556 2.2686907243256571 2.0 13.309568366546623 1 2.0 14.719299028280922 1.8921370257179149 2.0 20.452906754527103 1.5895641492861505 2.0 27.528211802692166 1 2.0 34.472680484262767 2.8011389960902853 2.0 41.177337250678349 1.785437019914468 2.0 50.112822778906008 1.5169392046493155 2.0 52.812374505103357 1.5016928375641592 2.0 61.576032640793485 2.6246854410019509 2.0 63.060145168046716 2.0984440151212254 2.0 66.032739182285226 2.6727225651535833 2.0 74.028422089747124 2.4797091280559482 2.0 75.781352479579539 3.1601398071287865 2.0 85.67959807019561 3.0680656197807541 2.0 89.062508851514536 2.7171631254645185 2.0 90.914132839580773 2.9590287957586963 2.0 97.618362219308565 2.3901019880570935 2.0 99.798751198522538 1 2.0 15.673716705848802 2.443094865153344 2.0 19.230215821364869 2.99609151481389 2.0 34.693454763200158 1.4984360792521259 2.0 40.876855055609489 3.3326166167565674 2.0 60.514062199775992 3.1280839497361872 2.0 62.687739934548858 3.4903326738872473 2.0 86.633254876208213 2.124368951267809 2.0 19.950908774871134 3.5966863993274121 2.0 39.728901520429851 2.9213789553908613 2.0 19.598670136497706 2.1017093651805974 2.0 40.316072394275849 1.4428969429156022 2.0 </DataArray>
</Points>
<Cells>
<DataArray Name="connectivity" format="ascii" type="Int32">0</DataArray>
<DataArray Name="offsets" format="ascii" type="Int32">0</DataArray>
<DataArray Name="types" format="ascii" type="UInt8">1</DataArray>
</Cells>
<PointData>
<DataArray Name="Points" NumberOfComponents="3" format="ascii" type="Float32">1.0 1.0 2.0 4.0 1.0 2.0 7.0 1.0 2.0 10.0 1.0 2.0 12.800749534104888 2.3136420504809037 2.0 16.660112758503299 1.8967357608940809 2.0 18.396061741609071 1.7261062915557717 2.0 22.053157294813058 1 2.0 25.0 1.0 2.0 28.122040756123585 2.3014410793587978 2.0 31.0 1.0 2.0 33.303929078276909 1.6859968046015104 2.0 37.0 1.0 2.0 39.18672059306428 1.6470250002315328 2.0 43.010662158996666 1.0 2.0 46.0 1.0 2.0 48.672526875171009 2.1087142785542397 2.0 51.709718247451342 2.2648348656174546 2.0 55.0 1.0 2.0 58.0 1.0 2.0 60.64081664449899 1.4610908190222358 2.0 64.380354410970497 1.8876658385378979 2.0 67.319269862398443 1.8261939498847464 2.0 70.0 1.0 2.0 72.64389057592669 1.8641950318813381 2.0 76.129966981470176 1.6732760513400706 2.0 79.0 1.0 2.0 82.0 1.0 2.0 84.689705472586525 1.7666908986498984 2.0 87.963192872920089 1.7557759824889343 2.0 91.117944019166359 1.5776750172349157 2.0 94.0 1.0 2.0 96.481826984351414 1.8182927735735865 2.0 99.099457722959556 2.2686907243256571 2.0 13.309568366546623 1 2.0 14.719299028280922 1.8921370257179149 2.0 20.452906754527103 1.5895641492861505 2.0 27.528211802692166 1 2.0 34.472680484262767 2.8011389960902853 2.0 41.177337250678349 1.785437019914468 2.0 50.112822778906008 1.5169392046493155 2.0 52.812374505103357 1.5016928375641592 2.0 61.576032640793485 2.6246854410019509 2.0 63.060145168046716 2.0984440151212254 2.0 66.032739182285226 2.6727225651535833 2.0 74.028422089747124 2.4797091280559482 2.0 75.781352479579539 3.1601398071287865 2.0 85.67959807019561 3.0680656197807541 2.0 89.062508851514536 2.7171631254645185 2.0 90.914132839580773 2.9590287957586963 2.0 97.618362219308565 2.3901019880570935 2.0 99.798751198522538 1 2.0 15.673716705848802 2.443094865153344 2.0 19.230215821364869 2.99609151481389 2.0 34.693454763200158 1.4984360792521259 2.0 40.876855055609489 3.3326166167565674 2.0 60.514062199775992 3.1280839497361872 2.0 62.687739934548858 3.4903326738872473 2.0 86.633254876208213 2.124368951267809 2.0 19.950908774871134 3.5966863993274121 2.0 39.728901520429851 2.9213789553908613 2.0 19.598670136497706 2.1017093651805974 2.0 40.316072394275849 1.4428969429156022 2.0 </DataArray>
<DataArray Name="forces" NumberOfComponents="3" format="ascii" type="Float32">0.0 0.0 0.0 0.0 0.0 0.0 0.0 0.0 0.0 0.0 0.0 0.0 -0.24269758008899753 0.59007317876237597 0.0 0.86849116681682281 -0.41489112444969123 0.0 -0.99936163387753929 -0.72140185011880098 0.0 0.22287403918497742 -0.086309983729918827 0.0 0.0 0.0 0.0 0.24902019672998912 0.56000390620087037 0.0 0.0 0.0 0.0 -1.0768549311429179 -0.2603763397302476 0.0 0.0 0.0 0.0 -1.4083788476935781 -0.523443278426167 0.0 0.0 0.0 0.0 0.0 0.0 0.0 -0.4575194093506052 0.18475587945452907 0.0 -0.41242016143950427 0.50323836868256722 0.0 0.0 0.0 0.0 0.0 0.0 0.0 -0.32608520833159726 -0.87026636078171271 0.0 0.56279548700686699 -0.18216158556468792 0.0 0.4343117772192881 -0.28299648921431531 0.0 0.0 0.0 0.0 -0.49774508026324255 -0.22112235172362668 0.0 0.12517336460894038 -0.52424636579472006 0.0 0.0 0.0 0.0 0.0 0.0 0.0 -0.30199539473256032 -0.33599790990674161 0.0 0.16667156302076247 -0.53845315278743944 0.0 0.10366688966607134 -0.67895154489483933 0.0 0.0 0.0 0.0 -0.71718549847223123 -0.34958734511825562 0.0 0.22017039281331224 0.47148232887871228 0.0 -0.012611722899193684 -0.7374038076368582 0.0 -0.76428165116197455 -0.30798158188106162 0.0 0.91358633854951898 -0.76434119034955139 0.0 -0.24902019672998912 -0.56000390620087037 0.0 0.23953937583329532 1.1401992179463529 0.0 1.6480955226355338 -0.28570081688874632 0.0 0.25635892707333746 -0.27086327394663196 0.0 0.61358064371677201 -0.4171309741904643 0.0 0.27700203463269069 -0.17390441621923453 0.0 -0.10554764795752081 -0.61923509722704984 0.0 -0.31028941901961443 0.3377953598934878 0.0 0.40080310303930289 0.18528254242940709 0.0 -0.028231387385000736 0.56008617508893965 0.0 -0.25980021542650361 0.81574991432576271 0.0 0.33275464841015112 0.35917921473322822 0.0 0.011321115271021073 0.69257197661547731 0.0 0.20455894712953326 0.39327963561620199 0.0 0.29245615852938572 -0.51517461937665865 0.0 0.0071073815185380695 0.88204110975910432 0.0 -1.118621376707793 0.95770402299438917 0.0 0.83731555530962254 -0.87982287821610539 0.0 0.78106268160818637 0.9952204254840793 0.0 -0.85868023849090092 0.80330625380710186 0.0 0.32649321494078765 0.9874623353064107 0.0 -0.052618606208941987 -0.31409849808544776 0.0 0.96797012150579931 1.4727622025994016 0.0 -0.99632319553670434 1.0613557331614394 0.0 0.15754491715984165 -0.87025097594938894 0.0 -0.024456161013437727 -1.2474320633306055 0.0 </DataArray>
<DataArray Name="radii" format="ascii" type="Float32">1 1 1 1 1 1 1 1 1 1 1 1 1 1 1 1 1 1 1 1 1 1 1 1 1 1 1 1 1 1 1 1 1 1 1 1 1 1 1 1 1 1 1 1 1 1 1 1 1 1 1 1 1 1 1 1 1 1 1 1 1 1 1 </DataArray>
</PointData>
<CellData/>
</Piece>
</UnstructuredGrid>
</VTKFile>
