<?xml version="1.0" ?>
<VTKFile byte_order="LittleEndian" type="UnstructuredGrid" version="0.1">
<UnstructuredGrid>
<Piece NumberOfCells="0" NumberOfPoints="56">
<Points>
<DataArray NumberOfComponents="3" format="ascii" type="Float32">1.6500203861919585 1.8354953371366731 2.0 4.0470515822786437 1 2.0 7.0 1.0 2.0 9.7706991022557848 2.3325836738341894 2.0 13.0 1.0 2.0 16.0 1.0 2.0 19.0 1.0 2.0 22.0 1.0 2.0 24.715192585659032 1.9216867964929059 2.0 28.0 1.0 2.0 31.0 1.0 2.0 34.0 1.0 2.0 37.0 1.0 2.0 39.861568388688951 1 2.0 43.41167517208337 2.0326884318618195 2.0 45.466660970577728 1.6168924916766994 2.0 49.03351884645415 1.0 2.0 52.0 1.0 2.0 54.695099877304969 1 2.0 58.495434287061656 2.026411298230423 2.0 60.599263455392659 1.7508994257295996 2.0 64.128553855473299 1.5267860658427654 2.0 66.820510305104591 1.8050271694167206 2.0 70.0 1.0 2.0 73.0 1.0 2.0 76.0 1.0 2.0 79.0 1.0 2.0 82.0 1.0 2.0 85.0 1.0 2.0 87.968584774947004 1.0 2.0 91.445054356658147 2.1352722764979322 2.0 94.0 1.0 2.0 97.054384334652141 2.3788794730182947 2.0 98.697432102804655 2.3504024320983241 2.0 2.9333257785123497 2.5919004810277477 2.0 10.585673025079164 1.1505254089162145 2.0 26.245825531417889 2.3425633725232289 2.0 42.035773635062199 2.2499194582167927 2.0 46.282479717440125 2.2684300144466785 2.0 57.262898588510026 2.2372064146344481 2.0 61.798838228416635 2.2939871090478912 2.0 63.888142974760662 2.8252832345364594 2.0 68.024164676758019 2.82764345722937 2.0 89.63813123937021 2.2606779655802494 2.0 96.404045916502128 1.1812907251327278 2.0 100.37618904216122 2.1031153594371554 2.0 41.538820628614197 1 2.0 47.345223333647269 2.4955005783895259 2.0 55.482259047636951 2.3632241456955754 2.0 62.15358561250423 3.3621964432913956 2.0 90.298098968300962 1 2.0 99.093414234865591 1.0747769905932647 2.0 48.270198816131838 3.061056843486456 2.0 56.082123465144491 1.9470392546294788 2.0 48.463888982657977 4.2895530098084622 2.0 57.037965172042355 1.9260702832501562 2.0 </DataArray>
</Points>
<Cells>
<DataArray Name="connectivity" format="ascii" type="Int32">0</DataArray>
<DataArray Name="offsets" format="ascii" type="Int32">0</DataArray>
<DataArray Name="types" format="ascii" type="UInt8">1</DataArray>
</Cells>
<PointData>
<DataArray Name="Points" NumberOfComponents="3" format="ascii" type="Float32">1.6500203861919585 1.8354953371366731 2.0 4.0470515822786437 1 2.0 7.0 1.0 2.0 9.7706991022557848 2.3325836738341894 2.0 13.0 1.0 2.0 16.0 1.0 2.0 19.0 1.0 2.0 22.0 1.0 2.0 24.715192585659032 1.9216867964929059 2.0 28.0 1.0 2.0 31.0 1.0 2.0 34.0 1.0 2.0 37.0 1.0 2.0 39.861568388688951 1 2.0 43.41167517208337 2.0326884318618195 2.0 45.466660970577728 1.6168924916766994 2.0 49.03351884645415 1.0 2.0 52.0 1.0 2.0 54.695099877304969 1 2.0 58.495434287061656 2.026411298230423 2.0 60.599263455392659 1.7508994257295996 2.0 64.128553855473299 1.5267860658427654 2.0 66.820510305104591 1.8050271694167206 2.0 70.0 1.0 2.0 73.0 1.0 2.0 76.0 1.0 2.0 79.0 1.0 2.0 82.0 1.0 2.0 85.0 1.0 2.0 87.968584774947004 1.0 2.0 91.445054356658147 2.1352722764979322 2.0 94.0 1.0 2.0 97.054384334652141 2.3788794730182947 2.0 98.697432102804655 2.3504024320983241 2.0 2.9333257785123497 2.5919004810277477 2.0 10.585673025079164 1.1505254089162145 2.0 26.245825531417889 2.3425633725232289 2.0 42.035773635062199 2.2499194582167927 2.0 46.282479717440125 2.2684300144466785 2.0 57.262898588510026 2.2372064146344481 2.0 61.798838228416635 2.2939871090478912 2.0 63.888142974760662 2.8252832345364594 2.0 68.024164676758019 2.82764345722937 2.0 89.63813123937021 2.2606779655802494 2.0 96.404045916502128 1.1812907251327278 2.0 100.37618904216122 2.1031153594371554 2.0 41.538820628614197 1 2.0 47.345223333647269 2.4955005783895259 2.0 55.482259047636951 2.3632241456955754 2.0 62.15358561250423 3.3621964432913956 2.0 90.298098968300962 1 2.0 99.093414234865591 1.0747769905932647 2.0 48.270198816131838 3.061056843486456 2.0 56.082123465144491 1.9470392546294788 2.0 48.463888982657977 4.2895530098084622 2.0 57.037965172042355 1.9260702832501562 2.0 </DataArray>
<DataArray Name="forces" NumberOfComponents="3" format="ascii" type="Float32">-0.47338735925006348 -0.2781440365084582 0.0 0.033877239942376569 -0.04745981372852006 0.0 0.0 0.0 0.0 -0.34466922882152118 0.49991674479586928 0.0 0.0 0.0 0.0 0.0 0.0 0.0 0.0 0.0 0.0 0.0 0.0 0.0 -0.42810278036091381 -0.11771498378276057 0.0 0.0 0.0 0.0 0.0 0.0 0.0 0.0 0.0 0.0 0.0 0.0 0.0 -0.336993538989181 -0.0033557847600172021 0.0 0.64044333260292818 -0.090056352499052139 0.0 -0.78338770891174714 -0.61076205287036522 0.0 0.0 0.0 0.0 0.0 0.0 0.0 -0.92833413683174471 -0.72477366641244245 0.0 2.3571437911813753 -0.047120448155144788 0.0 -0.64217120935604355 -0.30441033240482995 0.0 0.13565121487004583 -0.7152200220076832 0.0 -0.34495301562371156 -0.29306965572045857 0.0 0.0 0.0 0.0 0.0 0.0 0.0 0.0 0.0 0.0 0.0 0.0 0.0 0.0 0.0 0.0 0.0 0.0 0.0 0.0 0.0 0.0 0.5122503705690904 0.27214632673933681 0.0 0.0 0.0 0.0 -0.020980478439995454 0.60157115482872625 0.0 -0.20363314036984947 0.72592061136928976 0.0 0.43951011930768691 0.32560385023697824 0.0 0.34466922882152118 -0.49991674479586928 0.0 0.42810278036091381 0.11771498378276057 0.0 -0.37168077364217372 0.7233875169650168 0.0 -0.1639482001322014 0.30977462637577413 0.0 2.5192373596073754 2.2023137274414855 0.0 0.33280802963671374 -0.56399924802656942 0.0 0.040205358705361349 0.66182032822760994 0.0 0.34495301562371156 0.29306965572045857 0.0 -0.50162946958482724 0.54954252557924366 0.0 -0.32910866765949076 -0.59459298677457884 0.0 0.64804552004767857 0.20208441257732068 0.0 0.068230980028426536 -0.62997537970594752 0.0 -0.48936982195665968 -1.152614943288776 0.0 -2.8074268618284242 1.42413151445133 0.0 0.13350660614392262 0.92180927421147263 0.0 -0.01062090098426316 -0.82168885231858035 0.0 -0.09432323357834288 -0.93498319200075786 0.0 0.48287161567779874 -1.3712592398922838 0.0 -1.6722567828644324 -0.76613894071694122 0.0 0.95383411532280937 2.8248616096756507 0.0 0.53163663073585066 -2.0884121866082865 0.0 </DataArray>
<DataArray Name="radii" format="ascii" type="Float32">1 1 1 1 1 1 1 1 1 1 1 1 1 1 1 1 1 1 1 1 1 1 1 1 1 1 1 1 1 1 1 1 1 1 1 1 1 1 1 1 1 1 1 1 1 1 1 1 1 1 1 1 1 1 2 2 </DataArray>
</PointData>
<CellData/>
</Piece>
</UnstructuredGrid>
</VTKFile>
