<?xml version="1.0" ?>
<VTKFile byte_order="LittleEndian" type="UnstructuredGrid" version="0.1">
<UnstructuredGrid>
<Piece NumberOfCells="0" NumberOfPoints="54">
<Points>
<DataArray NumberOfComponents="3" format="ascii" type="Float32">1.7288903495125274 1.8815449973147678 2.0 4.0419455794593642 1 2.0 7.0 1.0 2.0 9.8280776110375179 2.2493604704473293 2.0 13.0 1.0 2.0 16.0 1.0 2.0 19.0 1.0 2.0 22.0 1.0 2.0 24.786460622049784 1.9412832955880381 2.0 28.0 1.0 2.0 31.0 1.0 2.0 34.0 1.0 2.0 37.0 1.0 2.0 39.91366379863441 1 2.0 43.307443636098199 2.0435391856658072 2.0 45.596138249853105 1.7124573204186271 2.0 49.021629364466129 1.0 2.0 52.0 1.0 2.0 54.817386532358583 1 2.0 58.259137139145381 2.0158964900047605 2.0 60.696820847416959 1.8012632556507813 2.0 64.105169845308424 1.6448200587031172 2.0 66.877936057046313 1.8538156843413407 2.0 70.0 1.0 2.0 73.0 1.0 2.0 76.0 1.0 2.0 79.0 1.0 2.0 82.0 1.0 2.0 85.0 1.0 2.0 87.968584774947004 1.0 2.0 91.351001096977839 2.0892842458365273 2.0 94.0 1.0 2.0 97.045119614035016 2.2808756339431588 2.0 98.751867405061319 2.2284021975230313 2.0 2.8595618180110605 2.5389955106682036 2.0 10.52829451629743 1.2337486123030745 2.0 26.174557495027138 2.3229668734280966 2.0 42.091875361301049 2.1401593020414555 2.0 46.317699818606791 2.231515428784514 2.0 57.003547447880067 2.0558253181404624 2.0 61.756293270192465 2.3799077067354246 2.0 63.887411136162569 2.7143267842221461 2.0 67.966738924816298 2.7788549423047502 2.0 89.728782743719009 2.1697500076091312 2.0 96.459428291181979 1.2781017508868571 2.0 100.25723009965547 2.0664472113213064 2.0 41.534855028415059 1.0912232930145589 2.0 47.405681040050133 2.5993802932143573 2.0 55.845650525822307 2.1514357171602514 2.0 62.122689027467068 3.2188344731366421 2.0 90.301500723632458 1.0730018659047389 2.0 99.111820221051957 1.2346381866054128 2.0 48.110350491046255 3.0493810671214701 2.0 56.15178651510373 1 2.0 </DataArray>
</Points>
<Cells>
<DataArray Name="connectivity" format="ascii" type="Int32">0</DataArray>
<DataArray Name="offsets" format="ascii" type="Int32">0</DataArray>
<DataArray Name="types" format="ascii" type="UInt8">1</DataArray>
</Cells>
<PointData>
<DataArray Name="Points" NumberOfComponents="3" format="ascii" type="Float32">1.7288903495125274 1.8815449973147678 2.0 4.0419455794593642 1 2.0 7.0 1.0 2.0 9.8280776110375179 2.2493604704473293 2.0 13.0 1.0 2.0 16.0 1.0 2.0 19.0 1.0 2.0 22.0 1.0 2.0 24.786460622049784 1.9412832955880381 2.0 28.0 1.0 2.0 31.0 1.0 2.0 34.0 1.0 2.0 37.0 1.0 2.0 39.91366379863441 1 2.0 43.307443636098199 2.0435391856658072 2.0 45.596138249853105 1.7124573204186271 2.0 49.021629364466129 1.0 2.0 52.0 1.0 2.0 54.817386532358583 1 2.0 58.259137139145381 2.0158964900047605 2.0 60.696820847416959 1.8012632556507813 2.0 64.105169845308424 1.6448200587031172 2.0 66.877936057046313 1.8538156843413407 2.0 70.0 1.0 2.0 73.0 1.0 2.0 76.0 1.0 2.0 79.0 1.0 2.0 82.0 1.0 2.0 85.0 1.0 2.0 87.968584774947004 1.0 2.0 91.351001096977839 2.0892842458365273 2.0 94.0 1.0 2.0 97.045119614035016 2.2808756339431588 2.0 98.751867405061319 2.2284021975230313 2.0 2.8595618180110605 2.5389955106682036 2.0 10.52829451629743 1.2337486123030745 2.0 26.174557495027138 2.3229668734280966 2.0 42.091875361301049 2.1401593020414555 2.0 46.317699818606791 2.231515428784514 2.0 57.003547447880067 2.0558253181404624 2.0 61.756293270192465 2.3799077067354246 2.0 63.887411136162569 2.7143267842221461 2.0 67.966738924816298 2.7788549423047502 2.0 89.728782743719009 2.1697500076091312 2.0 96.459428291181979 1.2781017508868571 2.0 100.25723009965547 2.0664472113213064 2.0 41.534855028415059 1.0912232930145589 2.0 47.405681040050133 2.5993802932143573 2.0 55.845650525822307 2.1514357171602514 2.0 62.122689027467068 3.2188344731366421 2.0 90.301500723632458 1.0730018659047389 2.0 99.111820221051957 1.2346381866054128 2.0 48.110350491046255 3.0493810671214701 2.0 56.15178651510373 1 2.0 </DataArray>
<DataArray Name="forces" NumberOfComponents="3" format="ascii" type="Float32">-0.69786020476630561 -0.40296050513773901 0.0 0.03568796053071753 -0.043845387092382788 0.0 0.0 0.0 0.0 -0.50699722563152849 0.73536127238528959 0.0 0.0 0.0 0.0 0.0 0.0 0.0 0.0 0.0 0.0 0.0 0.0 0.0 -0.62972526636696546 -0.17315491260180119 0.0 0.0 0.0 0.0 0.0 0.0 0.0 0.0 0.0 0.0 0.0 0.0 0.0 -0.38686968122735482 -0.035187226772617881 0.0 0.95354359901693209 0.0072538068759220517 0.0 -1.0441155406464391 -0.71735877509051893 0.0 0.0 0.0 0.0 0.0 0.0 0.0 -1.1565624509361876 -0.44864535413957879 0.0 0.74832812637621393 -0.0015033123346381955 0.0 -0.83694101540571753 -0.53764084639121568 0.0 0.21791719792706457 -1.0313446679837379 0.0 -0.50741466678771097 -0.43109593181582984 0.0 0.0 0.0 0.0 0.0 0.0 0.0 0.0 0.0 0.0 0.0 0.0 0.0 0.0 0.0 0.0 0.0 0.0 0.0 0.0 0.0 0.0 1.0155780725565409 0.44067022539821793 0.0 0.0 0.0 0.0 0.28601476918420321 0.83961692006391098 0.0 -0.83298141961555128 1.0954723844969434 0.0 0.66217224423558807 0.44680589223012179 0.0 0.50699722563152849 -0.73536127238528959 0.0 0.62972526636696546 0.17315491260180119 0.0 -0.40919931603555454 0.79926231012781301 0.0 0.1585149960832703 0.37188568605818767 0.0 0.6930753530338174 0.52560644085278774 0.0 0.19970187184144539 -0.65605103200759207 0.0 -0.095073445780234439 0.99816874545594236 0.0 0.50741466678771097 0.43109593181582984 0.0 -0.95414111447910133 0.83255978761847504 0.0 -0.49827842865998101 -0.83122297210622431 0.0 1.2531879121464566 0.36409196093030133 0.0 -0.15747460175402272 -0.77132889023111717 0.0 -0.31347854561518851 -0.38371663679314388 0.0 -0.78598025258737436 1.4088434548993432 0.0 0.51439539141744195 1.2268678009266032 0.0 -0.061436958077439485 -1.2732300130166929 0.0 -0.20794283305512762 -1.4679582933849316 0.0 1.1990790901783572 0.72918972582547514 0.0 0.50113922411353073 -1.4843012292779139 0.0 </DataArray>
<DataArray Name="radii" format="ascii" type="Float32">1 1 1 1 1 1 1 1 1 1 1 1 1 1 1 1 1 1 1 1 1 1 1 1 1 1 1 1 1 1 1 1 1 1 1 1 1 1 1 1 1 1 1 1 1 1 1 1 1 1 1 1 1 1 </DataArray>
</PointData>
<CellData/>
</Piece>
</UnstructuredGrid>
</VTKFile>
