<?xml version="1.0" ?>
<VTKFile byte_order="LittleEndian" type="UnstructuredGrid" version="0.1">
<UnstructuredGrid>
<Piece NumberOfCells="0" NumberOfPoints="63">
<Points>
<DataArray NumberOfComponents="3" format="ascii" type="Float32">1.0 1.0 2.0 4.0 1.0 2.0 7.0 1.0 2.0 10.0 1.0 2.0 12.780096024857167 2.3601178746781613 2.0 16.707325897838999 1.8636830080355753 2.0 18.336548592258673 1.6722875666373083 2.0 22.076140325367785 1 2.0 25.0 1.0 2.0 28.141695171716044 2.3445158800989909 2.0 31.0 1.0 2.0 33.231533872854193 1.6705726850801825 2.0 37.0 1.0 2.0 39.096585256970307 1.6125450410556508 2.0 43.011083222923801 1 2.0 46.0 1.0 2.0 48.638469064033139 2.1227076278728676 2.0 51.682482520827747 2.3043605629210755 2.0 55.0 1.0 2.0 58.0 1.0 2.0 60.61647038307192 1.4010175148605726 2.0 64.421981279966715 1.8728875699983283 2.0 67.351214716289647 1.8051744488751755 2.0 70.0 1.0 2.0 72.607058559885942 1.8478208108272753 2.0 76.138940368173465 1.6350039674667964 2.0 79.0 1.0 2.0 82.0 1.0 2.0 84.669390101608087 1.7421844504473156 2.0 87.979091215142745 1.7124768513809521 2.0 91.125270135671386 1.528021417581078 2.0 94.0 1.0 2.0 96.427778523446293 1.7911001208307413 2.0 99.119916120812107 2.305344780127387 2.0 13.304020597650766 1 2.0 14.675922348640137 1.8689105686911871 2.0 20.508951754695385 1.5465556736497885 2.0 27.508557387099707 1 2.0 34.486386214596131 2.8788482866970315 2.0 41.27733725067835 1.7758471019828015 2.0 50.1290631688994 1.4946011814142839 2.0 52.857427652871422 1.4705118141769424 2.0 61.592309152508072 2.6098093635344526 2.0 63.051052665924402 2.0504083525556069 2.0 66.013605974053291 2.6998289466394372 2.0 74.055981216111789 2.492483914325911 2.0 75.781651982552333 3.2020113257861609 2.0 85.659059908095116 3.1307138651811712 2.0 89.085343995825355 2.745268097805293 2.0 90.917742078629075 3.0101108102083334 2.0 97.629824637131733 2.4207855873966677 2.0 99.820878843751927 1 2.0 15.67492568669868 2.5155637230543522 2.0 19.144190189806743 3.0609080357016678 2.0 34.75214423828951 1.4361509081667077 2.0 40.931915630756087 3.3913995962976182 2.0 60.450031492746881 3.184663018466658 2.0 62.71449437875728 3.5654300374148433 2.0 86.624439567200341 2.0999928980413829 2.0 20.027577750934316 3.6907609095556788 2.0 39.664848796173317 2.9863384356773541 2.0 19.609667748218822 2.0460334961416424 2.0 40.314778815552629 1.3634047533133897 2.0 </DataArray>
</Points>
<Cells>
<DataArray Name="connectivity" format="ascii" type="Int32">0</DataArray>
<DataArray Name="offsets" format="ascii" type="Int32">0</DataArray>
<DataArray Name="types" format="ascii" type="UInt8">1</DataArray>
</Cells>
<PointData>
<DataArray Name="Points" NumberOfComponents="3" format="ascii" type="Float32">1.0 1.0 2.0 4.0 1.0 2.0 7.0 1.0 2.0 10.0 1.0 2.0 12.780096024857167 2.3601178746781613 2.0 16.707325897838999 1.8636830080355753 2.0 18.336548592258673 1.6722875666373083 2.0 22.076140325367785 1 2.0 25.0 1.0 2.0 28.141695171716044 2.3445158800989909 2.0 31.0 1.0 2.0 33.231533872854193 1.6705726850801825 2.0 37.0 1.0 2.0 39.096585256970307 1.6125450410556508 2.0 43.011083222923801 1 2.0 46.0 1.0 2.0 48.638469064033139 2.1227076278728676 2.0 51.682482520827747 2.3043605629210755 2.0 55.0 1.0 2.0 58.0 1.0 2.0 60.61647038307192 1.4010175148605726 2.0 64.421981279966715 1.8728875699983283 2.0 67.351214716289647 1.8051744488751755 2.0 70.0 1.0 2.0 72.607058559885942 1.8478208108272753 2.0 76.138940368173465 1.6350039674667964 2.0 79.0 1.0 2.0 82.0 1.0 2.0 84.669390101608087 1.7421844504473156 2.0 87.979091215142745 1.7124768513809521 2.0 91.125270135671386 1.528021417581078 2.0 94.0 1.0 2.0 96.427778523446293 1.7911001208307413 2.0 99.119916120812107 2.305344780127387 2.0 13.304020597650766 1 2.0 14.675922348640137 1.8689105686911871 2.0 20.508951754695385 1.5465556736497885 2.0 27.508557387099707 1 2.0 34.486386214596131 2.8788482866970315 2.0 41.27733725067835 1.7758471019828015 2.0 50.1290631688994 1.4946011814142839 2.0 52.857427652871422 1.4705118141769424 2.0 61.592309152508072 2.6098093635344526 2.0 63.051052665924402 2.0504083525556069 2.0 66.013605974053291 2.6998289466394372 2.0 74.055981216111789 2.492483914325911 2.0 75.781651982552333 3.2020113257861609 2.0 85.659059908095116 3.1307138651811712 2.0 89.085343995825355 2.745268097805293 2.0 90.917742078629075 3.0101108102083334 2.0 97.629824637131733 2.4207855873966677 2.0 99.820878843751927 1 2.0 15.67492568669868 2.5155637230543522 2.0 19.144190189806743 3.0609080357016678 2.0 34.75214423828951 1.4361509081667077 2.0 40.931915630756087 3.3913995962976182 2.0 60.450031492746881 3.184663018466658 2.0 62.71449437875728 3.5654300374148433 2.0 86.624439567200341 2.0999928980413829 2.0 20.027577750934316 3.6907609095556788 2.0 39.664848796173317 2.9863384356773541 2.0 19.609667748218822 2.0460334961416424 2.0 40.314778815552629 1.3634047533133897 2.0 </DataArray>
<DataArray Name="forces" NumberOfComponents="3" format="ascii" type="Float32">0.0 0.0 0.0 0.0 0.0 0.0 0.0 0.0 0.0 0.0 0.0 0.0 -0.24841726536258132 0.55900413891305512 0.0 0.56787245316443291 -0.3975534801051519 0.0 -0.7158151013185523 -0.64732343105427892 0.0 0.27643639304443823 -0.10184466919027137 0.0 0.0 0.0 0.0 0.23640031895873451 0.51809714647393146 0.0 0.0 0.0 0.0 -0.87075851085493849 -0.18551896174916466 0.0 0.0 0.0 0.0 -1.0841341021731434 -0.41471970044177398 0.0 0.0050644928213704771 -0.0021697409613248854 0.0 0.0 0.0 0.0 -0.40964216809976334 0.16830987554236154 0.0 -0.32758717401707144 0.47540907058195564 0.0 0.0 0.0 0.0 0.0 0.0 0.0 -0.29283312646651433 -0.72255255812191088 0.0 0.50068164386104064 -0.17775076445175853 0.0 0.38422783997035365 -0.25281935856299714 0.0 0.0 0.0 0.0 -0.44300988238326017 -0.19694663836082074 0.0 0.10793052934179977 -0.4603307990662871 0.0 0.0 0.0 0.0 0.0 0.0 0.0 -0.24435018973085842 -0.2947598286188236 0.0 0.19122284021471908 -0.52079535799021592 0.0 0.088117414143863926 -0.59722593838507954 0.0 0.0 0.0 0.0 -0.65008666053143549 -0.32706908793610878 0.0 0.24607049520130242 0.44086940371734679 0.0 -0.066727719800193513 -0.72871952049152999 0.0 -0.52172809993835245 -0.27936428959538995 0.0 0.67410073087638511 -0.51729939822102933 0.0 -0.23640031895873451 -0.51809714647393146 0.0 0.16485043816888151 0.93467551854049469 0.0 1.2027847780395942 -0.11534607310857437 0.0 0.19533693873482538 -0.26867834318590839 0.0 0.54189240338200939 -0.3750406029384088 0.0 0.19577140529888498 -0.17892719534844792 0.0 -0.10936323147010069 -0.57776563736972297 0.0 -0.23013131616433666 0.32603143038919397 0.0 0.331476976874854 0.15365318468220268 0.0 0.0036023761666063997 0.50362425274490519 0.0 -0.24702988743385437 0.7535235593851094 0.0 0.27465763981392666 0.33804232918707228 0.0 0.04341137787607055 0.6144066941162194 0.0 0.13786821677236349 0.36905766221105507 0.0 0.26614794855776958 -0.48285797799229307 0.0 0.014541437631742316 0.87164439165246843 0.0 -1.0347032015935709 0.77960324689304328 0.0 0.70590807268605704 -0.74915655679133009 0.0 0.66226021656430156 0.70703272999789069 0.0 -0.77015159741731631 0.68052442624666187 0.0 0.32179838238798858 0.90325965721898149 0.0 -0.10602919488386742 -0.29319145769428195 0.0 0.92216277356677212 1.1315138890408925 0.0 -0.77041641727728605 0.78132274077956709 0.0 0.13227759972947983 -0.66966087784180806 0.0 -0.015558967974836829 -0.9561199562657845 0.0 </DataArray>
<DataArray Name="radii" format="ascii" type="Float32">1 1 1 1 1 1 1 1 1 1 1 1 1 1 1 1 1 1 1 1 1 1 1 1 1 1 1 1 1 1 1 1 1 1 1 1 1 1 1 1 1 1 1 1 1 1 1 1 1 1 1 1 1 1 1 1 1 1 1 1 1 1 1 </DataArray>
</PointData>
<CellData/>
</Piece>
</UnstructuredGrid>
</VTKFile>
