<?xml version="1.0" ?>
<VTKFile byte_order="LittleEndian" type="UnstructuredGrid" version="0.1">
<UnstructuredGrid>
<Piece NumberOfCells="0" NumberOfPoints="63">
<Points>
<DataArray NumberOfComponents="3" format="ascii" type="Float32">1.0 1.0 2.0 4.0 1.0 2.0 7.0 1.0 2.0 10.0 1.0 2.0 12.594480723224999 2.9960424773705685 2.0 16.543768735755645 1.5770718240169517 2.0 18.392977432843583 1 2.0 23.000758671072791 1.0 2.0 25.0 1.0 2.0 28.339504690171488 2.7193027168559385 2.0 30.992208386557387 1 2.0 32.824653824742946 1.7229143672587952 2.0 36.673609360232874 1 2.0 38.518971319058259 1.637627046954667 2.0 43.535653259812769 1 2.0 46.0 1.0 2.0 48.416279059710128 2.2274306428623909 2.0 51.607772781243604 2.6426923009903254 2.0 55.050335613390978 1.0 2.0 58.0 1.0 2.0 60.357236073306098 1.0364630242838537 2.0 65.002576802758298 1.5274331105611758 2.0 67.539090038726712 1.6657713016767373 2.0 70.0 1.0 2.0 72.325875090850943 1.7229443783086817 2.0 76.174894577291909 1.4611627903012783 2.0 79.0 1.0 2.0 82.0 1.0 2.0 84.479312715376153 1.6412858818753633 2.0 88.329032925542194 1.1923258782873332 2.0 91.152550021235129 1.2853387233990858 2.0 93.998985396877359 1.0 2.0 95.94205813664756 1.4793073674499591 2.0 99.484144820363838 2.909206198113325 2.0 12.733109227923785 1 2.0 14.4762389942473 1.8071035947701508 2.0 20.955999211717749 1 2.0 27.310747868644263 1.0 2.0 34.475805835288114 3.1485521910201868 2.0 41.954002761266281 2.2097161000410694 2.0 50.16542185170173 1.2562923886733075 2.0 53.067633100585248 1.27337874470974 2.0 61.455977873853364 2.7271008044942064 2.0 62.999235692232958 1.4558959023863038 2.0 66.175937795540335 3.1467286334249778 2.0 74.157371756309587 2.5286580059654091 2.0 75.925490702271077 3.4645548438307738 2.0 85.412884633677649 3.6170362553267053 2.0 89.11895536446022 3.0332907363276576 2.0 91.106274800916665 3.2874771202325435 2.0 97.489961447737386 2.7466159489695494 2.0 100.08324832351592 1.0 2.0 15.721327409410849 3.4693491579815752 2.0 18.154434140278259 3.8176356637576458 2.0 34.714009291526061 1.1615344657816258 2.0 41.282479104309502 4.086661954201837 2.0 59.671707238228784 3.6328473231871152 2.0 63.009398528671696 3.9969791523307014 2.0 86.46132654096408 1.9120137951968375 2.0 20.609137857356597 4.2948037972573259 2.0 39.40811938605323 3.4129062043474283 2.0 19.663134513135933 2.3985913140509885 2.0 40.38710076994689 1 2.0 </DataArray>
</Points>
<Cells>
<DataArray Name="connectivity" format="ascii" type="Int32">0</DataArray>
<DataArray Name="offsets" format="ascii" type="Int32">0</DataArray>
<DataArray Name="types" format="ascii" type="UInt8">1</DataArray>
</Cells>
<PointData>
<DataArray Name="Points" NumberOfComponents="3" format="ascii" type="Float32">1.0 1.0 2.0 4.0 1.0 2.0 7.0 1.0 2.0 10.0 1.0 2.0 12.594480723224999 2.9960424773705685 2.0 16.543768735755645 1.5770718240169517 2.0 18.392977432843583 1 2.0 23.000758671072791 1.0 2.0 25.0 1.0 2.0 28.339504690171488 2.7193027168559385 2.0 30.992208386557387 1 2.0 32.824653824742946 1.7229143672587952 2.0 36.673609360232874 1 2.0 38.518971319058259 1.637627046954667 2.0 43.535653259812769 1 2.0 46.0 1.0 2.0 48.416279059710128 2.2274306428623909 2.0 51.607772781243604 2.6426923009903254 2.0 55.050335613390978 1.0 2.0 58.0 1.0 2.0 60.357236073306098 1.0364630242838537 2.0 65.002576802758298 1.5274331105611758 2.0 67.539090038726712 1.6657713016767373 2.0 70.0 1.0 2.0 72.325875090850943 1.7229443783086817 2.0 76.174894577291909 1.4611627903012783 2.0 79.0 1.0 2.0 82.0 1.0 2.0 84.479312715376153 1.6412858818753633 2.0 88.329032925542194 1.1923258782873332 2.0 91.152550021235129 1.2853387233990858 2.0 93.998985396877359 1.0 2.0 95.94205813664756 1.4793073674499591 2.0 99.484144820363838 2.909206198113325 2.0 12.733109227923785 1 2.0 14.4762389942473 1.8071035947701508 2.0 20.955999211717749 1 2.0 27.310747868644263 1.0 2.0 34.475805835288114 3.1485521910201868 2.0 41.954002761266281 2.2097161000410694 2.0 50.16542185170173 1.2562923886733075 2.0 53.067633100585248 1.27337874470974 2.0 61.455977873853364 2.7271008044942064 2.0 62.999235692232958 1.4558959023863038 2.0 66.175937795540335 3.1467286334249778 2.0 74.157371756309587 2.5286580059654091 2.0 75.925490702271077 3.4645548438307738 2.0 85.412884633677649 3.6170362553267053 2.0 89.11895536446022 3.0332907363276576 2.0 91.106274800916665 3.2874771202325435 2.0 97.489961447737386 2.7466159489695494 2.0 100.08324832351592 1.0 2.0 15.721327409410849 3.4693491579815752 2.0 18.154434140278259 3.8176356637576458 2.0 34.714009291526061 1.1615344657816258 2.0 41.282479104309502 4.086661954201837 2.0 59.671707238228784 3.6328473231871152 2.0 63.009398528671696 3.9969791523307014 2.0 86.46132654096408 1.9120137951968375 2.0 20.609137857356597 4.2948037972573259 2.0 39.40811938605323 3.4129062043474283 2.0 19.663134513135933 2.3985913140509885 2.0 40.38710076994689 1 2.0 </DataArray>
<DataArray Name="forces" NumberOfComponents="3" format="ascii" type="Float32">0.0 0.0 0.0 0.0 0.0 0.0 0.0 0.0 0.0 0.0 0.0 0.0 -0.000139101322423204 0.0019752013806213654 0.0 0.030609979622826619 -0.01834512415361618 0.0 0.016298789704619149 -0.028947613151167242 0.0 0.028809695342303598 0.0 0.0 0.0 0.0 0.0 0.0 0.0 0.0 -0.0052013851832858667 -0.0019692704979412529 0.0 -0.027087637701644532 0.011167407329332588 0.0 -0.009839409938652191 -0.029432804496597516 0.0 0.0062858137520755281 0.0083056088585687499 0.0 0.012394304636432171 -0.0092245907413647642 0.0 0.0 0.0 0.0 0.0 0.0 0.0 0.0 0.0 0.0 0.0 0.0 0.0 0.0 0.0 0.0 0.0 0.0 0.0 0.0021633126110137332 -0.00085504934023806003 0.0 0.0 0.0 0.0 0.0 0.0 0.0 0.0 0.0 0.0 0.0 0.0 0.0 0.0 0.0 0.0 0.0 0.0 0.0 0.0 0.0 0.0 0.0 0.0 0.0 0.0 0.0 0.0 0.0 0.0 0.0 0.0 0.0 0.0 0.0 0.0 0.0 -0.00129542304065668 -0.0026106452865270625 0.0 -0.057411715628114382 -0.0015206900559886025 0.0 -0.02030227793615378 -0.0096023975418741882 0.0 0.0 0.0 0.0 0.0 0.0 0.0 0.019313227650357319 0.016583794339410804 0.0 0.0 0.0 0.0 0.0 0.0 0.0 -0.0024888784986353369 -0.0020345892183224715 0.0 -0.0028608349423858851 -0.00010415499458763388 0.0 0.00069752233137215173 0.00095920433482569393 0.0 0.0 0.0 0.0 0.0 0.0 0.0 0.0 0.0 0.0 0.0 0.0 0.0 0.0 0.0 0.0 0.0 0.0 0.0 0.0 0.0 0.0 -0.0042016321484399472 0.030984484293615062 0.0 -0.023432861019296414 0.020586140853220528 0.0 -0.028310860730613445 -0.0039457931187450073 0.0 0.010001060808555413 0.018492048418163671 0.0 0.0 0.0 0.0 0.0024888784986353369 0.0020345892183224715 0.0 0.0 0.0 0.0 0.034737027131152939 0.066756201672421772 0.0 0.0018177967289122708 0.026655878934224678 0.0 -0.003672480705817896 -0.059275558010705456 0.0 0.02062708997786334 -0.03663227902505195 0.0 </DataArray>
<DataArray Name="radii" format="ascii" type="Float32">1 1 1 1 1 1 1 1 1 1 1 1 1 1 1 1 1 1 1 1 1 1 1 1 1 1 1 1 1 1 1 1 1 1 1 1 1 1 1 1 1 1 1 1 1 1 1 1 1 1 1 1 1 1 1 1 1 1 1 1 1 1 1 </DataArray>
</PointData>
<CellData/>
</Piece>
</UnstructuredGrid>
</VTKFile>
