<?xml version="1.0" ?>
<VTKFile byte_order="LittleEndian" type="UnstructuredGrid" version="0.1">
<UnstructuredGrid>
<Piece NumberOfCells="0" NumberOfPoints="63">
<Points>
<DataArray NumberOfComponents="3" format="ascii" type="Float32">1.0 1.0 2.0 4.0 1.0 2.0 7.0 1.0 2.0 10.0 1.0 2.0 12.728793716661096 2.4761671400322434 2.0 16.75392930053242 1.7787462197622144 2.0 18.247165012048825 1.5452956427036038 2.0 22.157174696405125 1 2.0 25.0 1.0 2.0 28.190920101743618 2.4471714440885068 2.0 31.0 1.0 2.0 33.107505897054864 1.653413521284145 2.0 37.0 1.0 2.0 38.891748134970285 1.5466191113729117 2.0 43.04133025202885 1 2.0 46.0 1.0 2.0 48.562604434232036 2.1552189572856406 2.0 51.637416491758827 2.4025620125274139 2.0 55.0 1.0 2.0 58.0 1.0 2.0 60.557653880590266 1.2906798268677118 2.0 64.51490594878355 1.8315228581403655 2.0 67.420311629710881 1.7583902017747315 2.0 70.0 1.0 2.0 72.525874411024489 1.8116879983693259 2.0 76.156880827534906 1.5548378349887488 2.0 79.0 1.0 2.0 82.0 1.0 2.0 84.632773766163425 1.6923277314132561 2.0 88.03126755415694 1.5994119909775679 2.0 91.139426872277539 1.4232840128878723 2.0 94.0 1.0 2.0 96.303500214506954 1.7243958246288844 2.0 99.182235247855928 2.4014196084282475 2.0 13.267940760844704 1 2.0 14.615374894648422 1.8141055333748184 2.0 20.627612169845939 1.46689432409676 2.0 27.459332457072133 1 2.0 34.499261995525877 3.0166286767463668 2.0 41.455224636809341 1.8028329787969162 2.0 50.153465581330558 1.4334840057466334 2.0 52.953955899310287 1.4009162108254818 2.0 61.611021466291376 2.5774969360899123 2.0 63.027302515142331 1.9387822043202858 2.0 65.990876977634429 2.7722029375413633 2.0 74.106746385399347 2.5156654029079548 2.0 75.794130502764787 3.2951287821401141 2.0 85.606623009236003 3.27646608889434 2.0 89.126359719832777 2.8150591608128721 2.0 90.93997725450275 3.1203897445231825 2.0 97.636589041483575 2.4961629109282946 2.0 99.876073621295603 1 2.0 15.680604692411398 2.7154838139769315 2.0 18.936979130274345 3.1967586611843561 2.0 34.863296433159093 1.3155296819134099 2.0 41.053826860287771 3.5076914081367492 2.0 60.306725960157536 3.2905860650667442 2.0 62.782361665007834 3.7295582225439596 2.0 86.583908826002656 2.0418296611364348 2.0 20.204079862808335 3.849289933848048 2.0 39.553542871044449 3.0826016967969476 2.0 19.62571268048687 1.9731945540398264 2.0 40.300876217913789 1.2039052568133151 2.0 </DataArray>
</Points>
<Cells>
<DataArray Name="connectivity" format="ascii" type="Int32">0</DataArray>
<DataArray Name="offsets" format="ascii" type="Int32">0</DataArray>
<DataArray Name="types" format="ascii" type="UInt8">1</DataArray>
</Cells>
<PointData>
<DataArray Name="Points" NumberOfComponents="3" format="ascii" type="Float32">1.0 1.0 2.0 4.0 1.0 2.0 7.0 1.0 2.0 10.0 1.0 2.0 12.728793716661096 2.4761671400322434 2.0 16.75392930053242 1.7787462197622144 2.0 18.247165012048825 1.5452956427036038 2.0 22.157174696405125 1 2.0 25.0 1.0 2.0 28.190920101743618 2.4471714440885068 2.0 31.0 1.0 2.0 33.107505897054864 1.653413521284145 2.0 37.0 1.0 2.0 38.891748134970285 1.5466191113729117 2.0 43.04133025202885 1 2.0 46.0 1.0 2.0 48.562604434232036 2.1552189572856406 2.0 51.637416491758827 2.4025620125274139 2.0 55.0 1.0 2.0 58.0 1.0 2.0 60.557653880590266 1.2906798268677118 2.0 64.51490594878355 1.8315228581403655 2.0 67.420311629710881 1.7583902017747315 2.0 70.0 1.0 2.0 72.525874411024489 1.8116879983693259 2.0 76.156880827534906 1.5548378349887488 2.0 79.0 1.0 2.0 82.0 1.0 2.0 84.632773766163425 1.6923277314132561 2.0 88.03126755415694 1.5994119909775679 2.0 91.139426872277539 1.4232840128878723 2.0 94.0 1.0 2.0 96.303500214506954 1.7243958246288844 2.0 99.182235247855928 2.4014196084282475 2.0 13.267940760844704 1 2.0 14.615374894648422 1.8141055333748184 2.0 20.627612169845939 1.46689432409676 2.0 27.459332457072133 1 2.0 34.499261995525877 3.0166286767463668 2.0 41.455224636809341 1.8028329787969162 2.0 50.153465581330558 1.4334840057466334 2.0 52.953955899310287 1.4009162108254818 2.0 61.611021466291376 2.5774969360899123 2.0 63.027302515142331 1.9387822043202858 2.0 65.990876977634429 2.7722029375413633 2.0 74.106746385399347 2.5156654029079548 2.0 75.794130502764787 3.2951287821401141 2.0 85.606623009236003 3.27646608889434 2.0 89.126359719832777 2.8150591608128721 2.0 90.93997725450275 3.1203897445231825 2.0 97.636589041483575 2.4961629109282946 2.0 99.876073621295603 1 2.0 15.680604692411398 2.7154838139769315 2.0 18.936979130274345 3.1967586611843561 2.0 34.863296433159093 1.3155296819134099 2.0 41.053826860287771 3.5076914081367492 2.0 60.306725960157536 3.2905860650667442 2.0 62.782361665007834 3.7295582225439596 2.0 86.583908826002656 2.0418296611364348 2.0 20.204079862808335 3.849289933848048 2.0 39.553542871044449 3.0826016967969476 2.0 19.62571268048687 1.9731945540398264 2.0 40.300876217913789 1.2039052568133151 2.0 </DataArray>
<DataArray Name="forces" NumberOfComponents="3" format="ascii" type="Float32">0.0 0.0 0.0 0.0 0.0 0.0 0.0 0.0 0.0 0.0 0.0 0.0 -0.19601266847040022 0.45825317825477602 0.0 0.093730181167507698 -0.3393888481967785 0.0 -0.26780937573975072 -0.49527394366950306 0.0 0.35787466768669945 -0.11702488387659407 0.0 0.0 0.0 0.0 0.19458660957413124 0.39778754767156627 0.0 0.0 0.0 0.0 -0.40366088770258213 -0.036810587065278982 0.0 0.0 0.0 0.0 -0.78433665670073549 -0.23226327414238182 0.0 0.16055473944007023 -0.076616027132295941 0.0 0.0 0.0 0.0 -0.28544463380736262 0.12474832158714246 0.0 -0.14404314257631964 0.38661394859105419 0.0 0.0 0.0 0.0 0.0 0.0 0.0 -0.23299347436629658 -0.37438803019656153 0.0 0.35187759809777663 -0.17263578782296554 0.0 0.25633555926459728 -0.17612671688340059 0.0 0.0 0.0 0.0 -0.30430921388798043 -0.13549275199458308 0.0 0.063697564108261343 -0.29155150612559316 0.0 0.0 0.0 0.0 0.0 0.0 0.0 -0.12500628637515585 -0.17728527657686544 0.0 0.22496223286346684 -0.45486333780434418 0.0 0.049386075372584479 -0.38257933234023883 0.0 0.0 0.0 0.0 -0.47508326613241381 -0.2620367557570622 0.0 0.26405826966506263 0.38904417545444592 0.0 -0.17883524730237324 -0.66771438543244743 0.0 -0.18876374716968419 -0.21128089339205339 0.0 0.46893416153531636 -0.309821152533166 0.0 -0.19458660957413124 -0.39778754767156627 0.0 0.020177489150666236 0.45791894170713443 0.0 0.64025406934272988 0.14881218573947974 0.0 0.073583390524191244 -0.24981725078953626 0.0 0.35590438585949102 -0.26154501938866037 0.0 0.042970842426255373 -0.1109754423389876 0.0 -0.092862663802045275 -0.42366858963853432 0.0 -0.050890400235168914 0.29518890465386272 0.0 0.17330954352545555 0.077979071314355955 0.0 0.067302106254263541 0.34906518680582027 0.0 -0.20972745892897812 0.55610159645299606 0.0 0.13697811014821221 0.27549351753551909 0.0 0.10868762324197735 0.40774176631081777 0.0 -0.0073928438960511045 0.29587199164044903 0.0 0.21841784036340225 -0.42287941133783274 0.0 0.026287479485121779 0.82202536398634196 0.0 -0.8249121443853743 0.52949221217571107 0.0 0.38348339855191588 -0.42110835464185542 0.0 0.45983037948851979 0.43380731265959438 0.0 -0.54126456251955346 0.36034165528517037 0.0 0.26682710113443497 0.60226400694141646 0.0 -0.18528029632210696 -0.22460893357788456 0.0 0.66440771479544403 0.51165658541102543 0.0 -0.40130477028843597 0.30761789048308746 0.0 0.045098978397493397 -0.1809232327273122 0.0 -0.074997761282148481 -0.58135808760748386 0.0 </DataArray>
<DataArray Name="radii" format="ascii" type="Float32">1 1 1 1 1 1 1 1 1 1 1 1 1 1 1 1 1 1 1 1 1 1 1 1 1 1 1 1 1 1 1 1 1 1 1 1 1 1 1 1 1 1 1 1 1 1 1 1 1 1 1 1 1 1 1 1 1 1 1 1 1 1 1 </DataArray>
</PointData>
<CellData/>
</Piece>
</UnstructuredGrid>
</VTKFile>
