<?xml version="1.0" ?>
<VTKFile byte_order="LittleEndian" type="UnstructuredGrid" version="0.1">
<UnstructuredGrid>
<Piece NumberOfCells="0" NumberOfPoints="52">
<Points>
<DataArray NumberOfComponents="3" format="ascii" type="Float32">1.8094037611216416 1.9279610639373947 2.0 4.0380050162995271 1 2.0 7.0 1.0 2.0 9.8865582822462041 2.1645386635106192 2.0 13.0 1.0 2.0 16.0 1.0 2.0 19.0 1.0 2.0 22.0 1.0 2.0 24.859097619635591 1.9612562165432195 2.0 28.0 1.0 2.0 31.0 1.0 2.0 34.0 1.0 2.0 37.0 1.0 2.0 39.956907757276113 1 2.0 43.196027695076637 2.0405760912703386 2.0 45.761043088765099 1.8151625416418451 2.0 49.000326685012666 1.0 2.0 52.0 1.0 2.0 54.944880120521759 1 2.0 58.141100834579568 2.0159207740051017 2.0 60.794311588591533 1.8656791825978749 2.0 64.079879179710233 1.7636693516931166 2.0 66.936464878891272 1.9035413596969022 2.0 70.0 1.0 2.0 73.0 1.0 2.0 76.0 1.0 2.0 79.0 1.0 2.0 82.0 1.0 2.0 85.0 1.0 2.0 87.968584774947004 1.0 2.0 91.230613375534148 2.0378632557187575 2.0 94.0 1.0 2.0 97.00880928115069 2.1843532452683614 2.0 98.854062816555938 2.1019284269457272 2.0 2.7829889695617829 2.4877988133139133 2.0 10.469813845088744 1.3185704192397842 2.0 26.101920497441331 2.3029939524729155 2.0 42.137762122816362 2.0507444824120062 2.0 46.336957769083355 2.2022319477172521 2.0 56.900813772072368 2.0175991993613227 2.0 61.735729128020736 2.4542491603260626 2.0 63.900149282110355 2.5988268853092684 2.0 67.908210102971339 2.7291292669491884 2.0 89.841519630144262 2.0733018062615267 2.0 96.517030016786336 1.3737502792296998 2.0 100.10895735326572 2.023933998292613 2.0 41.557140249279605 1.1793347448994673 2.0 47.327931812094754 2.5578726753929812 2.0 55.974497883874932 2.0079897358113388 2.0 62.058314948114628 3.0767276985217888 2.0 90.309151558650896 1.2208710573701127 2.0 99.136606163227043 1.4044990305433649 2.0 </DataArray>
</Points>
<Cells>
<DataArray Name="connectivity" format="ascii" type="Int32">0</DataArray>
<DataArray Name="offsets" format="ascii" type="Int32">0</DataArray>
<DataArray Name="types" format="ascii" type="UInt8">1</DataArray>
</Cells>
<PointData>
<DataArray Name="Points" NumberOfComponents="3" format="ascii" type="Float32">1.8094037611216416 1.9279610639373947 2.0 4.0380050162995271 1 2.0 7.0 1.0 2.0 9.8865582822462041 2.1645386635106192 2.0 13.0 1.0 2.0 16.0 1.0 2.0 19.0 1.0 2.0 22.0 1.0 2.0 24.859097619635591 1.9612562165432195 2.0 28.0 1.0 2.0 31.0 1.0 2.0 34.0 1.0 2.0 37.0 1.0 2.0 39.956907757276113 1 2.0 43.196027695076637 2.0405760912703386 2.0 45.761043088765099 1.8151625416418451 2.0 49.000326685012666 1.0 2.0 52.0 1.0 2.0 54.944880120521759 1 2.0 58.141100834579568 2.0159207740051017 2.0 60.794311588591533 1.8656791825978749 2.0 64.079879179710233 1.7636693516931166 2.0 66.936464878891272 1.9035413596969022 2.0 70.0 1.0 2.0 73.0 1.0 2.0 76.0 1.0 2.0 79.0 1.0 2.0 82.0 1.0 2.0 85.0 1.0 2.0 87.968584774947004 1.0 2.0 91.230613375534148 2.0378632557187575 2.0 94.0 1.0 2.0 97.00880928115069 2.1843532452683614 2.0 98.854062816555938 2.1019284269457272 2.0 2.7829889695617829 2.4877988133139133 2.0 10.469813845088744 1.3185704192397842 2.0 26.101920497441331 2.3029939524729155 2.0 42.137762122816362 2.0507444824120062 2.0 46.336957769083355 2.2022319477172521 2.0 56.900813772072368 2.0175991993613227 2.0 61.735729128020736 2.4542491603260626 2.0 63.900149282110355 2.5988268853092684 2.0 67.908210102971339 2.7291292669491884 2.0 89.841519630144262 2.0733018062615267 2.0 96.517030016786336 1.3737502792296998 2.0 100.10895735326572 2.023933998292613 2.0 41.557140249279605 1.1793347448994673 2.0 47.327931812094754 2.5578726753929812 2.0 55.974497883874932 2.0079897358113388 2.0 62.058314948114628 3.0767276985217888 2.0 90.309151558650896 1.2208710573701127 2.0 99.136606163227043 1.4044990305433649 2.0 </DataArray>
<DataArray Name="forces" NumberOfComponents="3" format="ascii" type="Float32">-0.85562036498930971 -0.4894385533781207 0.0 0.031068111344589831 -0.034887808226363851 0.0 0.0 0.0 0.0 -0.62083732950234749 0.90047776493935516 0.0 0.0 0.0 0.0 0.0 0.0 0.0 0.0 0.0 0.0 0.0 0.0 0.0 -0.77112246956467068 -0.21203475698709887 0.0 0.0 0.0 0.0 0.0 0.0 0.0 0.0 0.0 0.0 0.0 0.0 0.0 -0.3743102130441216 -0.05337573849841843 0.0 1.2657613281869293 0.14832065938165215 0.0 -1.6092043849434547 -0.97720169823026426 0.0 0.0 0.0 0.0 0.0 0.0 0.0 -0.40707359915496705 -0.38428800410825276 0.0 0.78386065800770688 0.00016742423459822426 0.0 -1.0968082416807401 -0.81538685686413737 0.0 0.27358599915344006 -1.2582450616334218 0.0 -0.62134850202859893 -0.52789331684110319 0.0 0.0 0.0 0.0 0.0 0.0 0.0 0.0 0.0 0.0 0.0 0.0 0.0 0.0 0.0 0.0 0.0 0.0 0.0 0.0 0.0 0.0 1.4700533785162795 0.57970512639571481 0.0 0.0 0.0 0.0 0.57488109146012256 1.0112794447780784 0.0 -1.4420518245673266 1.3444672436640355 0.0 0.82455225364471985 0.52432636160448454 0.0 0.62083732950234749 -0.90047776493935516 0.0 0.77112246956467068 0.21203475698709887 0.0 -0.41925003165422003 0.80005195098060122 0.0 0.25963915199016674 0.43223349528569166 0.0 0.3483825347113948 0.035120340481229632 0.0 0.095075448118485117 -0.72831479955074974 0.0 -0.23814057733373439 1.2496814608076026 0.0 0.62134850202859893 0.52789331684110319 0.0 -1.3537916940783143 1.041775883018043 0.0 -0.61513353100075929 -1.0092041799684865 0.0 1.8033888553361606 0.47983809351319123 0.0 -0.47220108348858769 -0.89499687186383492 0.0 1.3495652329532879 0.5449682029445726 0.0 -0.72516959356413468 0.34900023939242492 0.0 0.96628737174254919 1.5522652572407063 0.0 -0.11626168443796514 -1.6214810094137577 0.0 -0.32108459122819721 -1.8263806019868185 0.0 </DataArray>
<DataArray Name="radii" format="ascii" type="Float32">1 1 1 1 1 1 1 1 1 1 1 1 1 1 1 1 1 1 1 1 1 1 1 1 1 1 1 1 1 1 1 1 1 1 1 1 1 1 1 1 1 1 1 1 1 1 1 1 1 1 1 1 </DataArray>
</PointData>
<CellData/>
</Piece>
</UnstructuredGrid>
</VTKFile>
