<?xml version="1.0" ?>
<VTKFile byte_order="LittleEndian" type="UnstructuredGrid" version="0.1">
<UnstructuredGrid>
<Piece NumberOfCells="0" NumberOfPoints="63">
<Points>
<DataArray NumberOfComponents="3" format="ascii" type="Float32">1.0 1.0 2.0 4.0 1.0 2.0 7.0 1.0 2.0 10.0 1.0 2.0 12.709599940307555 2.528536993821958 2.0 16.747523931544151 1.739354863981146 2.0 18.230279409752495 1.4887870892677895 2.0 22.207027375083133 1 2.0 25.0 1.0 2.0 28.213124743683021 2.4910949903306592 2.0 31.0 1.0 2.0 33.075614425278765 1.6539062730474561 2.0 36.996143810958252 1 2.0 38.809268347155395 1.5255121712077218 2.0 43.06712449755954 1 2.0 46.0 1.0 2.0 48.532629770564178 2.1688177320556297 2.0 51.626419780813912 2.4459784694097331 2.0 55.0 1.0 2.0 58.0 1.0 2.0 60.529888617144842 1.2567611677703276 2.0 64.553482294732291 1.8093083944884822 2.0 67.446572817855596 1.7397647074516447 2.0 70.0 1.0 2.0 72.493858339485854 1.7974309356149532 2.0 76.162780701021092 1.5265332527010478 2.0 79.0 1.0 2.0 82.0 1.0 2.0 84.620926381759219 1.6763562710448385 2.0 88.060110012434137 1.5457556308217508 2.0 91.143847684129412 1.3856675701190246 2.0 94.0 1.0 2.0 96.251765547343041 1.6944449972497981 2.0 99.215667894412505 2.4486723832805186 2.0 13.239667071217896 1 2.0 14.602816906474898 1.7919195612433403 2.0 20.679612732472123 1.4306411513986892 2.0 27.43712781513273 1 2.0 34.496991552885184 3.0544621625771904 2.0 41.517595432032252 1.8263267298198598 2.0 50.15864991090239 1.4036961728451507 2.0 52.989742944351228 1.373688812074656 2.0 61.611358007214001 2.5706808604252678 2.0 63.017647966443889 1.8948605911597971 2.0 65.992008174757331 2.80828641081176 2.0 74.122080978329137 2.5222166910534387 2.0 75.804912107887446 3.3311391390367038 2.0 85.581852641782262 3.3354091223132949 2.0 89.137400661446492 2.8467445568678138 2.0 90.956187567791957 3.1614795290311255 2.0 97.629717798206158 2.5297060982396484 2.0 99.901246885180356 1 2.0 15.684247585260175 2.8154838139769316 2.0 18.843044633747621 3.2553075699933265 2.0 34.897458347575885 1.2772034443192752 2.0 41.101560143797045 3.5547779695642836 2.0 60.248126348464396 3.3226238554785992 2.0 62.812075816705857 3.7869332647591949 2.0 86.560012052828611 2.0173557104476778 2.0 20.271946080848473 3.8880849778747812 2.0 39.515256956047587 3.1060976818091905 2.0 19.629601250258961 1.9740135209880401 2.0 40.289599785504414 1.1451063163076158 2.0 </DataArray>
</Points>
<Cells>
<DataArray Name="connectivity" format="ascii" type="Int32">0</DataArray>
<DataArray Name="offsets" format="ascii" type="Int32">0</DataArray>
<DataArray Name="types" format="ascii" type="UInt8">1</DataArray>
</Cells>
<PointData>
<DataArray Name="Points" NumberOfComponents="3" format="ascii" type="Float32">1.0 1.0 2.0 4.0 1.0 2.0 7.0 1.0 2.0 10.0 1.0 2.0 12.709599940307555 2.528536993821958 2.0 16.747523931544151 1.739354863981146 2.0 18.230279409752495 1.4887870892677895 2.0 22.207027375083133 1 2.0 25.0 1.0 2.0 28.213124743683021 2.4910949903306592 2.0 31.0 1.0 2.0 33.075614425278765 1.6539062730474561 2.0 36.996143810958252 1 2.0 38.809268347155395 1.5255121712077218 2.0 43.06712449755954 1 2.0 46.0 1.0 2.0 48.532629770564178 2.1688177320556297 2.0 51.626419780813912 2.4459784694097331 2.0 55.0 1.0 2.0 58.0 1.0 2.0 60.529888617144842 1.2567611677703276 2.0 64.553482294732291 1.8093083944884822 2.0 67.446572817855596 1.7397647074516447 2.0 70.0 1.0 2.0 72.493858339485854 1.7974309356149532 2.0 76.162780701021092 1.5265332527010478 2.0 79.0 1.0 2.0 82.0 1.0 2.0 84.620926381759219 1.6763562710448385 2.0 88.060110012434137 1.5457556308217508 2.0 91.143847684129412 1.3856675701190246 2.0 94.0 1.0 2.0 96.251765547343041 1.6944449972497981 2.0 99.215667894412505 2.4486723832805186 2.0 13.239667071217896 1 2.0 14.602816906474898 1.7919195612433403 2.0 20.679612732472123 1.4306411513986892 2.0 27.43712781513273 1 2.0 34.496991552885184 3.0544621625771904 2.0 41.517595432032252 1.8263267298198598 2.0 50.15864991090239 1.4036961728451507 2.0 52.989742944351228 1.373688812074656 2.0 61.611358007214001 2.5706808604252678 2.0 63.017647966443889 1.8948605911597971 2.0 65.992008174757331 2.80828641081176 2.0 74.122080978329137 2.5222166910534387 2.0 75.804912107887446 3.3311391390367038 2.0 85.581852641782262 3.3354091223132949 2.0 89.137400661446492 2.8467445568678138 2.0 90.956187567791957 3.1614795290311255 2.0 97.629717798206158 2.5297060982396484 2.0 99.901246885180356 1 2.0 15.684247585260175 2.8154838139769316 2.0 18.843044633747621 3.2553075699933265 2.0 34.897458347575885 1.2772034443192752 2.0 41.101560143797045 3.5547779695642836 2.0 60.248126348464396 3.3226238554785992 2.0 62.812075816705857 3.7869332647591949 2.0 86.560012052828611 2.0173557104476778 2.0 20.271946080848473 3.8880849778747812 2.0 39.515256956047587 3.1060976818091905 2.0 19.629601250258961 1.9740135209880401 2.0 40.289599785504414 1.1451063163076158 2.0 </DataArray>
<DataArray Name="forces" NumberOfComponents="3" format="ascii" type="Float32">0.0 0.0 0.0 0.0 0.0 0.0 0.0 0.0 0.0 0.0 0.0 0.0 -0.14757642507936114 0.40265946949982445 0.0 -0.049249373296381238 -0.30287085553786514 0.0 -0.1298294184690017 -0.43448095616291843 0.0 0.38330550301391275 -0.11700284273754694 0.0 0.0 0.0 0.0 0.17072626132689164 0.33771780038632943 0.0 0.0 0.0 0.0 -0.24520601410301995 0.0037886522350566096 0.0 -0.029649329174709305 -0.0085671499639338178 0.0 -0.6341676594965876 -0.16228629096056627 0.0 0.19832587777010771 -0.10038584675248947 0.0 0.0 0.0 0.0 -0.23046812808374936 0.10455777586697786 0.0 -0.084551120060475049 0.33381890974899336 0.0 0.0 0.0 0.0 0.0 0.0 0.0 -0.21348057022171998 -0.26079257989031079 0.0 0.29660443692158983 -0.17080177816053438 0.0 0.20191608953588264 -0.14320703841222177 0.0 0.0 0.0 0.0 -0.24616403232630804 -0.10961919711200208 0.0 0.045362737455835522 -0.21762726575757912 0.0 0.0 0.0 0.0 0.0 0.0 0.0 -0.09109174790356131 -0.1228007965213665 0.0 0.22176286753827518 -0.41255111389820365 0.0 0.033990580958678747 -0.28922396748698781 0.0 0.0 0.0 0.0 -0.39777566915918705 -0.23028485647428495 0.0 0.25705574394962954 0.36331545493348366 0.0 -0.21738973936506747 -0.62260800722905496 0.0 -0.096555412895381887 -0.17058271357162627 0.0 0.39982007673399145 -0.27874210504589425 0.0 -0.17072626132689164 -0.33771780038632943 0.0 -0.017456898636788849 0.29089276046366208 0.0 0.47955435234900595 0.18063791740654722 0.0 0.039861088852534504 -0.22903163033111465 0.0 0.27515815929168991 -0.20934505528485658 0.0 0.0025875838781795335 -0.052407200184610786 0.0 -0.074231550708265398 -0.33770293737677493 0.0 0.008697508212156424 0.27743732612105443 0.0 0.11790407280684698 0.050371311323370145 0.0 0.082897222063625542 0.27687515154621106 0.0 -0.19045352042205355 0.453199099285019 0.0 0.084891199253886246 0.24362154642639736 0.0 0.12463728036486307 0.31592967393542531 0.0 -0.052831370963867808 0.25790566577399393 0.0 0.19355129617342531 -0.39093626423319267 0.0 0.028009344991176244 0.76887644391114596 0.0 -0.72224021650051395 0.45016876799919237 0.0 0.2626629127398088 -0.29468141269871867 0.0 0.3670099728081519 0.36203747906406419 0.0 -0.45055861053193985 0.24633102362637718 0.0 0.22846511291411684 0.44114318427702104 0.0 -0.18373665979008841 -0.18817444174028375 0.0 0.52180736388398419 0.29828595492650933 0.0 -0.29437138174674216 0.18065509402402896 0.0 0.029898296982642736 0.0062968439482336894 0.0 -0.086701832509226473 -0.45209120281765081 0.0 </DataArray>
<DataArray Name="radii" format="ascii" type="Float32">1 1 1 1 1 1 1 1 1 1 1 1 1 1 1 1 1 1 1 1 1 1 1 1 1 1 1 1 1 1 1 1 1 1 1 1 1 1 1 1 1 1 1 1 1 1 1 1 1 1 1 1 1 1 1 1 1 1 1 1 1 1 1 </DataArray>
</PointData>
<CellData/>
</Piece>
</UnstructuredGrid>
</VTKFile>
