<?xml version="1.0" ?>
<VTKFile byte_order="LittleEndian" type="UnstructuredGrid" version="0.1">
<UnstructuredGrid>
<Piece NumberOfCells="0" NumberOfPoints="63">
<Points>
<DataArray NumberOfComponents="3" format="ascii" type="Float32">1.0 1.0 2.0 4.0 1.0 2.0 7.0 1.0 2.0 10.0 1.0 2.0 12.594035203631199 3.0057700190167602 2.0 16.37639304093652 1.6342079806808771 2.0 18.449967958611047 1 2.0 23.000259582365338 1.0 2.0 25.000499088707453 1.0 2.0 28.339504690171488 2.7193027168559385 2.0 30.93410984828202 1 2.0 32.724207491257289 1.7943596184049313 2.0 36.716186450566063 1 2.0 38.495618484700522 1.6507944177904845 2.0 43.566792570373579 1 2.0 46.0 1.0 2.0 48.416279059710128 2.2274306428623909 2.0 51.607772781243604 2.6426923009903254 2.0 55.050335613390978 1.0 2.0 58.0 1.0 2.0 60.357236073306098 1.0364630242838537 2.0 65.002470067661363 1.5272858109102947 2.0 67.539090038726712 1.6657713016767373 2.0 70.0 1.0 2.0 72.325875090850943 1.7229443783086817 2.0 76.174894577291909 1.4611627903012783 2.0 79.0 1.0 2.0 82.0 1.0 2.0 84.479312715376153 1.6412858818753633 2.0 88.329032925542194 1.1923258782873332 2.0 91.152550021235129 1.2853387233990858 2.0 93.998985396877359 1.0 2.0 95.94205813664756 1.4793073674499591 2.0 99.484144820363838 2.909206198113325 2.0 12.686344616141529 1 2.0 14.499046977024735 1.831914154599837 2.0 20.998593568956796 1.0 2.0 27.310747868644263 1.0 2.0 34.475805835288114 3.1485521910201868 2.0 42.00582317492416 2.2493911370588813 2.0 50.16542185170173 1.2562923886733075 2.0 53.067633100585248 1.27337874470974 2.0 61.455674006899116 2.7273511043191787 2.0 62.999539559187205 1.4556456025613316 2.0 66.17604453063727 3.1468759330758589 2.0 74.157371756309587 2.5286580059654091 2.0 75.925490702271077 3.4645548438307738 2.0 85.412884633677649 3.6170362553267053 2.0 89.11895536446022 3.0332907363276576 2.0 91.106274800916665 3.2874771202325435 2.0 97.489961447737386 2.7466159489695494 2.0 100.08324832351592 1.0 2.0 15.721327409410849 3.4693491579815752 2.0 18.154434140278259 3.8176356637576458 2.0 34.654471642193101 1.130770107497816 2.0 41.295030376947736 4.1340874945275559 2.0 59.671707238228784 3.6328473231871152 2.0 63.009398528671696 3.9969791523307014 2.0 86.46132654096408 1.9120137951968375 2.0 20.609137857356597 4.2948037972573259 2.0 39.431108419386725 3.5027715162902995 2.0 19.755327473547169 2.5985913140509886 2.0 40.467459004874996 1 2.0 </DataArray>
</Points>
<Cells>
<DataArray Name="connectivity" format="ascii" type="Int32">0</DataArray>
<DataArray Name="offsets" format="ascii" type="Int32">0</DataArray>
<DataArray Name="types" format="ascii" type="UInt8">1</DataArray>
</Cells>
<PointData>
<DataArray Name="Points" NumberOfComponents="3" format="ascii" type="Float32">1.0 1.0 2.0 4.0 1.0 2.0 7.0 1.0 2.0 10.0 1.0 2.0 12.594035203631199 3.0057700190167602 2.0 16.37639304093652 1.6342079806808771 2.0 18.449967958611047 1 2.0 23.000259582365338 1.0 2.0 25.000499088707453 1.0 2.0 28.339504690171488 2.7193027168559385 2.0 30.93410984828202 1 2.0 32.724207491257289 1.7943596184049313 2.0 36.716186450566063 1 2.0 38.495618484700522 1.6507944177904845 2.0 43.566792570373579 1 2.0 46.0 1.0 2.0 48.416279059710128 2.2274306428623909 2.0 51.607772781243604 2.6426923009903254 2.0 55.050335613390978 1.0 2.0 58.0 1.0 2.0 60.357236073306098 1.0364630242838537 2.0 65.002470067661363 1.5272858109102947 2.0 67.539090038726712 1.6657713016767373 2.0 70.0 1.0 2.0 72.325875090850943 1.7229443783086817 2.0 76.174894577291909 1.4611627903012783 2.0 79.0 1.0 2.0 82.0 1.0 2.0 84.479312715376153 1.6412858818753633 2.0 88.329032925542194 1.1923258782873332 2.0 91.152550021235129 1.2853387233990858 2.0 93.998985396877359 1.0 2.0 95.94205813664756 1.4793073674499591 2.0 99.484144820363838 2.909206198113325 2.0 12.686344616141529 1 2.0 14.499046977024735 1.831914154599837 2.0 20.998593568956796 1.0 2.0 27.310747868644263 1.0 2.0 34.475805835288114 3.1485521910201868 2.0 42.00582317492416 2.2493911370588813 2.0 50.16542185170173 1.2562923886733075 2.0 53.067633100585248 1.27337874470974 2.0 61.455674006899116 2.7273511043191787 2.0 62.999539559187205 1.4556456025613316 2.0 66.17604453063727 3.1468759330758589 2.0 74.157371756309587 2.5286580059654091 2.0 75.925490702271077 3.4645548438307738 2.0 85.412884633677649 3.6170362553267053 2.0 89.11895536446022 3.0332907363276576 2.0 91.106274800916665 3.2874771202325435 2.0 97.489961447737386 2.7466159489695494 2.0 100.08324832351592 1.0 2.0 15.721327409410849 3.4693491579815752 2.0 18.154434140278259 3.8176356637576458 2.0 34.654471642193101 1.130770107497816 2.0 41.295030376947736 4.1340874945275559 2.0 59.671707238228784 3.6328473231871152 2.0 63.009398528671696 3.9969791523307014 2.0 86.46132654096408 1.9120137951968375 2.0 20.609137857356597 4.2948037972573259 2.0 39.431108419386725 3.5027715162902995 2.0 19.755327473547169 2.5985913140509886 2.0 40.467459004874996 1 2.0 </DataArray>
<DataArray Name="forces" NumberOfComponents="3" format="ascii" type="Float32">0.0 0.0 0.0 0.0 0.0 0.0 0.0 0.0 0.0 0.0 0.0 0.0 -8.5333936259106706e-05 0.0018631939657589489 0.0 -0.024500170619417075 0.0085849658064874983 0.0 0.012736955425619083 -0.028304059463864335 0.0 0.0 0.0 0.0 0.0 0.0 0.0 0.0 0.0 0.0 -0.0075987006069508801 -0.0030198423433573239 0.0 -0.019265040127428058 0.011251088302232403 0.0 0.0095834238710986071 -0.012710196403033997 0.0 -0.0062150692029323308 0.0011375368383238754 0.0 0.0050874866137412779 -0.0039231186661246613 0.0 0.0 0.0 0.0 0.0 0.0 0.0 0.0 0.0 0.0 0.0 0.0 0.0 0.0 0.0 0.0 0.0 0.0 0.0 0.0 0.0 0.0 0.0 0.0 0.0 0.0 0.0 0.0 0.0 0.0 0.0 0.0 0.0 0.0 0.0 0.0 0.0 0.0 0.0 0.0 0.0 0.0 0.0 0.0 0.0 0.0 0.0 0.0 0.0 0.0 0.0 0.0 0.0 0.0 0.0 0.0 0.0 0.0 8.5333936259106706e-05 -0.0018631939657589489 0.0 -0.0046739389739138097 0.00056529269176109015 0.0 0.0 0.0 0.0 0.0 0.0 0.0 0.0 0.0 0.0 0.0084845137846083756 0.0061297573796893932 0.0 0.0 0.0 0.0 0.0 0.0 0.0 0.0 0.0 0.0 0.0 0.0 0.0 0.0 0.0 0.0 0.0 0.0 0.0 0.0 0.0 0.0 0.0 0.0 0.0 0.0 0.0 0.0 0.0 0.0 0.0 0.0 0.0 0.0 0.0 0.0 0.0 0.0 0.0 0.0 0.0 0.0 0.0 -0.010668718701733641 -0.0052009192909768711 0.0 0.0017066076686480755 0.0079569790816241288 0.0 0.0 0.0 0.0 0.0 0.0 0.0 0.0 0.0 0.0 0.0 0.0 0.0 0.0045601190260487565 0.015929281659653693 0.0 0.016437154167711802 0.019153800965615746 0.0 0.01432537767489982 -0.017550566558030639 0.0 </DataArray>
<DataArray Name="radii" format="ascii" type="Float32">1 1 1 1 1 1 1 1 1 1 1 1 1 1 1 1 1 1 1 1 1 1 1 1 1 1 1 1 1 1 1 1 1 1 1 1 1 1 1 1 1 1 1 1 1 1 1 1 1 1 1 1 1 1 1 1 1 1 1 1 1 1 1 </DataArray>
</PointData>
<CellData/>
</Piece>
</UnstructuredGrid>
</VTKFile>
