<?xml version="1.0" ?>
<VTKFile byte_order="LittleEndian" type="UnstructuredGrid" version="0.1">
<UnstructuredGrid>
<Piece NumberOfCells="0" NumberOfPoints="63">
<Points>
<DataArray NumberOfComponents="3" format="ascii" type="Float32">1.0 1.0 2.0 4.0 1.0 2.0 7.0 1.0 2.0 10.0 1.0 2.0 12.615179004104014 2.8649181940225352 2.0 16.507319156984888 1.5605309871125765 2.0 18.260192263226251 1.119957669994639 2.0 22.695995397698141 1 2.0 25.0 1.0 2.0 28.323658507734475 2.6925020187282249 2.0 31.0 1.0 2.0 33.012779038597316 1.6673815882027636 2.0 36.802829520332338 1 2.0 38.544293426121158 1.5194442173277358 2.0 43.323277803056207 1 2.0 46.0 1.0 2.0 48.421789049890513 2.2243935417285399 2.0 51.614833208445496 2.6260811593364468 2.0 55.033751285875027 1 2.0 58.0 1.0 2.0 60.379376004752956 1.0677219726061806 2.0 64.823017102570972 1.6230896624910043 2.0 67.536820382460576 1.6679489694991876 2.0 70.0 1.0 2.0 72.353584341684595 1.7351608791449944 2.0 76.174894577291909 1.4611627903012783 2.0 79.0 1.0 2.0 82.0 1.0 2.0 84.528022084225569 1.6480161051925315 2.0 88.262363829194996 1.2465000397245181 2.0 91.152550021235129 1.2853387233990858 2.0 94.0 1.0 2.0 95.997771233065805 1.5236620128065264 2.0 99.433584396213945 2.7875776386271944 2.0 12.955596874264955 1 2.0 14.670939480467183 1.7089960617102293 2.0 20.879052044269141 1.0614585992476684 2.0 27.326594051081276 1 2.0 34.479066814840444 3.1328604956433468 2.0 41.758262134501273 2.0240370345107048 2.0 50.165300770789187 1.2644045864796245 2.0 53.071768091631469 1.2825512927507912 2.0 61.518765773885889 2.6553437133050961 2.0 62.997984831391662 1.6457827574440695 2.0 66.097792718101957 3.0486533021504569 2.0 74.156409319161099 2.5305713042848179 2.0 75.898743888585912 3.4504250446750526 2.0 85.438909132686931 3.5749047005861132 2.0 89.129587758291279 3.0117626011897327 2.0 91.083845017993255 3.2844083717141861 2.0 97.522820559416658 2.7065787270182002 2.0 100.04422193644567 1 2.0 15.720357464238855 3.3642489053771296 2.0 18.402416981984736 3.5767295732639575 2.0 34.916236439546537 1.1917509295506503 2.0 41.260762854912016 3.8508334928591665 2.0 59.888662908137256 3.5194392325476302 2.0 62.968740322016963 3.9612396423014471 2.0 86.465059158544918 1.917837848839359 2.0 20.46143580462622 3.9926295563535819 2.0 39.393224858536747 3.2470822651656044 2.0 19.676882445103097 2.2774657932530054 2.0 40.275880408350282 1 2.0 </DataArray>
</Points>
<Cells>
<DataArray Name="connectivity" format="ascii" type="Int32">0</DataArray>
<DataArray Name="offsets" format="ascii" type="Int32">0</DataArray>
<DataArray Name="types" format="ascii" type="UInt8">1</DataArray>
</Cells>
<PointData>
<DataArray Name="Points" NumberOfComponents="3" format="ascii" type="Float32">1.0 1.0 2.0 4.0 1.0 2.0 7.0 1.0 2.0 10.0 1.0 2.0 12.615179004104014 2.8649181940225352 2.0 16.507319156984888 1.5605309871125765 2.0 18.260192263226251 1.119957669994639 2.0 22.695995397698141 1 2.0 25.0 1.0 2.0 28.323658507734475 2.6925020187282249 2.0 31.0 1.0 2.0 33.012779038597316 1.6673815882027636 2.0 36.802829520332338 1 2.0 38.544293426121158 1.5194442173277358 2.0 43.323277803056207 1 2.0 46.0 1.0 2.0 48.421789049890513 2.2243935417285399 2.0 51.614833208445496 2.6260811593364468 2.0 55.033751285875027 1 2.0 58.0 1.0 2.0 60.379376004752956 1.0677219726061806 2.0 64.823017102570972 1.6230896624910043 2.0 67.536820382460576 1.6679489694991876 2.0 70.0 1.0 2.0 72.353584341684595 1.7351608791449944 2.0 76.174894577291909 1.4611627903012783 2.0 79.0 1.0 2.0 82.0 1.0 2.0 84.528022084225569 1.6480161051925315 2.0 88.262363829194996 1.2465000397245181 2.0 91.152550021235129 1.2853387233990858 2.0 94.0 1.0 2.0 95.997771233065805 1.5236620128065264 2.0 99.433584396213945 2.7875776386271944 2.0 12.955596874264955 1 2.0 14.670939480467183 1.7089960617102293 2.0 20.879052044269141 1.0614585992476684 2.0 27.326594051081276 1 2.0 34.479066814840444 3.1328604956433468 2.0 41.758262134501273 2.0240370345107048 2.0 50.165300770789187 1.2644045864796245 2.0 53.071768091631469 1.2825512927507912 2.0 61.518765773885889 2.6553437133050961 2.0 62.997984831391662 1.6457827574440695 2.0 66.097792718101957 3.0486533021504569 2.0 74.156409319161099 2.5305713042848179 2.0 75.898743888585912 3.4504250446750526 2.0 85.438909132686931 3.5749047005861132 2.0 89.129587758291279 3.0117626011897327 2.0 91.083845017993255 3.2844083717141861 2.0 97.522820559416658 2.7065787270182002 2.0 100.04422193644567 1 2.0 15.720357464238855 3.3642489053771296 2.0 18.402416981984736 3.5767295732639575 2.0 34.916236439546537 1.1917509295506503 2.0 41.260762854912016 3.8508334928591665 2.0 59.888662908137256 3.5194392325476302 2.0 62.968740322016963 3.9612396423014471 2.0 86.465059158544918 1.917837848839359 2.0 20.46143580462622 3.9926295563535819 2.0 39.393224858536747 3.2470822651656044 2.0 19.676882445103097 2.2774657932530054 2.0 40.275880408350282 1 2.0 </DataArray>
<DataArray Name="forces" NumberOfComponents="3" format="ascii" type="Float32">0.0 0.0 0.0 0.0 0.0 0.0 0.0 0.0 0.0 0.0 0.0 0.0 -0.031467314320885155 0.14871442031770263 0.0 -0.072132064837422502 -0.031570748386552487 0.0 0.046565823175446941 -0.1969266476747869 0.0 0.26110477363374557 -0.023236495143508385 0.0 0.0 0.0 0.0 0.034460817040639656 0.059281426619863971 0.0 0.0 0.0 0.0 -0.022978339646966155 0.0056278448266702634 0.0 -0.096077621093770355 -0.064151250469077784 0.0 -0.072092470188094809 0.03216211598482592 0.0 0.13654345490671455 -0.086749268534089624 0.0 0.0 0.0 0.0 -0.022556383390911629 0.012260932776497601 0.0 -0.0030034961039170083 0.042701578639416718 0.0 0.028928479773765906 -0.0042969050960638749 0.0 0.0 0.0 0.0 -0.050675160321756313 -0.068062942424193515 0.0 0.14731473177633442 -0.093078254462915552 0.0 0.015815213969325743 -0.014478659725967916 0.0 0.0 0.0 0.0 -0.044768685152031085 -0.019785886040251652 0.0 0.0 0.0 0.0 0.0 0.0 0.0 0.0 0.0 0.0 -0.059664071724770652 -0.0085505457373939112 0.0 0.090849919613285535 -0.1041063356521375 0.0 0.00034761793880610771 -0.0078949656796040973 0.0 0.0 0.0 0.0 -0.089587772808693331 -0.067186028893723229 0.0 0.085373491669329338 0.15803981583351939 0.0 -0.14149419257230536 -0.22217208459430324 0.0 -0.017607737581642163 0.0016502140003919058 0.0 0.036760559259442827 -0.24175755466413351 0.0 -0.034460817040639656 -0.059281426619863971 0.0 -0.0029609759524514083 0.012416125208606852 0.0 0.10144752730815897 0.09996489272895448 0.0 0.00064381369843175343 -0.032391227752575621 0.0 -0.0040124139773690219 -0.018274378567274822 0.0 -0.061943389652355282 0.066368042438649841 0.0 -0.0030762467221002732 -0.14082530607366944 0.0 0.06889835438680858 0.10217711766301647 0.0 0.0029783254734311315 -0.0022420348143187795 0.0 0.041790359678599953 0.022027920854570431 0.0 -0.047412702755787774 0.075728222873811424 0.0 -0.018413192292711142 0.052003566020030423 0.0 0.049755954889275061 0.01534458534755798 0.0 -0.051477065069237424 0.063777906044829399 0.0 0.055691346208601424 -0.15463169298462556 0.0 0.01721356749153917 0.15761742611570367 0.0 -0.1581045496831042 0.16961171592364785 0.0 -0.06514463943817321 -0.0086845046516801465 0.0 0.026180826500377397 0.14479479749443294 0.0 -0.17433017697434547 0.093763815893198932 0.0 0.057996673538088586 0.054136186691881152 0.0 -0.015463525668097132 -0.022524527172264316 0.0 0.037483454665394468 0.083878804682162397 0.0 -0.016724147899305736 0.069093691261256404 0.0 0.021677680769790396 0.15419094942367606 0.0 0.011806385503510791 -0.20447444384989932 0.0 </DataArray>
<DataArray Name="radii" format="ascii" type="Float32">1 1 1 1 1 1 1 1 1 1 1 1 1 1 1 1 1 1 1 1 1 1 1 1 1 1 1 1 1 1 1 1 1 1 1 1 1 1 1 1 1 1 1 1 1 1 1 1 1 1 1 1 1 1 1 1 1 1 1 1 1 1 1 </DataArray>
</PointData>
<CellData/>
</Piece>
</UnstructuredGrid>
</VTKFile>
