<?xml version="1.0" ?>
<VTKFile byte_order="LittleEndian" type="UnstructuredGrid" version="0.1">
<UnstructuredGrid>
<Piece NumberOfCells="0" NumberOfPoints="63">
<Points>
<DataArray NumberOfComponents="3" format="ascii" type="Float32">1.0 1.0 2.0 4.0 1.0 2.0 7.0 1.0 2.0 10.0 1.0 2.0 12.836933285604289 2.2220010550286431 2.0 16.49461572859412 1.9599556269412659 2.0 18.591172275168343 1.8475382518994712 2.0 22.028776014581613 1.0 2.0 25.0 1.0 2.0 28.083686806326227 2.2135010435137845 2.0 31.0 1.0 2.0 33.489144523407965 1.7345166149698092 2.0 37.0 1.0 2.0 39.441024091248956 1.7432646656722099 2.0 43.010662158996666 1.0 2.0 46.0 1.0 2.0 48.746149506237053 2.0792946873095168 2.0 51.781605211694718 2.1868278611273677 2.0 55.0 1.0 2.0 58.0 1.0 2.0 60.694133189666168 1.6082448576407606 2.0 64.289233531655498 1.9155415316142661 2.0 67.248857886788173 1.8718583517066867 2.0 70.0 1.0 2.0 72.724322881806145 1.8999086287724534 2.0 76.109403908700514 1.758509535051578 2.0 79.0 1.0 2.0 82.0 1.0 2.0 84.741910485219663 1.8211073647692877 2.0 87.941820331766678 1.8376906983725743 2.0 91.100759506448952 1.6879717453779892 2.0 94.0 1.0 2.0 96.596287953417871 1.8728173060417963 2.0 99.071269595100787 2.1938603214611621 2.0 13.304545817088636 1 2.0 14.863542912649679 1.9421282453264024 2.0 20.270070332777795 1.7489078516299932 2.0 27.566565752489524 1 2.0 34.427141927116345 2.6069508843478717 2.0 40.877337250678345 1.8522750916168238 2.0 50.066817209004775 1.557488217131421 2.0 52.712870479695169 1.5685704208168634 2.0 61.523669670432774 2.6476033857434347 2.0 63.074914461366852 2.1940868820274306 2.0 66.088590029321878 2.6208719599644956 2.0 73.960377137114591 2.4484367042193487 2.0 75.789528199102264 3.070465150362764 2.0 85.719687705586423 2.9403519537352256 2.0 89.006068606411475 2.6613642434651545 2.0 90.916384483636179 2.8470840376399367 2.0 97.579672100119822 2.3289427898115913 2.0 99.751168476503608 1.0661786981706112 2.0 15.673669046757345 2.3105713177512635 2.0 19.402218312306555 2.8298173487820488 2.0 34.553777875215523 1.644104380626241 2.0 40.743269426708629 3.141999027047508 2.0 60.651797515786775 2.9949399295645431 2.0 62.639963758300098 3.3360723540834565 2.0 86.633705883102735 2.1731983472853584 2.0 19.804733355767166 3.3218030006606134 2.0 39.903496079933689 2.7273468210753347 2.0 19.575089835671932 2.2531713097781871 2.0 40.320759965488207 1.6644689297971551 2.0 </DataArray>
</Points>
<Cells>
<DataArray Name="connectivity" format="ascii" type="Int32">0</DataArray>
<DataArray Name="offsets" format="ascii" type="Int32">0</DataArray>
<DataArray Name="types" format="ascii" type="UInt8">1</DataArray>
</Cells>
<PointData>
<DataArray Name="Points" NumberOfComponents="3" format="ascii" type="Float32">1.0 1.0 2.0 4.0 1.0 2.0 7.0 1.0 2.0 10.0 1.0 2.0 12.836933285604289 2.2220010550286431 2.0 16.49461572859412 1.9599556269412659 2.0 18.591172275168343 1.8475382518994712 2.0 22.028776014581613 1.0 2.0 25.0 1.0 2.0 28.083686806326227 2.2135010435137845 2.0 31.0 1.0 2.0 33.489144523407965 1.7345166149698092 2.0 37.0 1.0 2.0 39.441024091248956 1.7432646656722099 2.0 43.010662158996666 1.0 2.0 46.0 1.0 2.0 48.746149506237053 2.0792946873095168 2.0 51.781605211694718 2.1868278611273677 2.0 55.0 1.0 2.0 58.0 1.0 2.0 60.694133189666168 1.6082448576407606 2.0 64.289233531655498 1.9155415316142661 2.0 67.248857886788173 1.8718583517066867 2.0 70.0 1.0 2.0 72.724322881806145 1.8999086287724534 2.0 76.109403908700514 1.758509535051578 2.0 79.0 1.0 2.0 82.0 1.0 2.0 84.741910485219663 1.8211073647692877 2.0 87.941820331766678 1.8376906983725743 2.0 91.100759506448952 1.6879717453779892 2.0 94.0 1.0 2.0 96.596287953417871 1.8728173060417963 2.0 99.071269595100787 2.1938603214611621 2.0 13.304545817088636 1 2.0 14.863542912649679 1.9421282453264024 2.0 20.270070332777795 1.7489078516299932 2.0 27.566565752489524 1 2.0 34.427141927116345 2.6069508843478717 2.0 40.877337250678345 1.8522750916168238 2.0 50.066817209004775 1.557488217131421 2.0 52.712870479695169 1.5685704208168634 2.0 61.523669670432774 2.6476033857434347 2.0 63.074914461366852 2.1940868820274306 2.0 66.088590029321878 2.6208719599644956 2.0 73.960377137114591 2.4484367042193487 2.0 75.789528199102264 3.070465150362764 2.0 85.719687705586423 2.9403519537352256 2.0 89.006068606411475 2.6613642434651545 2.0 90.916384483636179 2.8470840376399367 2.0 97.579672100119822 2.3289427898115913 2.0 99.751168476503608 1.0661786981706112 2.0 15.673669046757345 2.3105713177512635 2.0 19.402218312306555 2.8298173487820488 2.0 34.553777875215523 1.644104380626241 2.0 40.743269426708629 3.141999027047508 2.0 60.651797515786775 2.9949399295645431 2.0 62.639963758300098 3.3360723540834565 2.0 86.633705883102735 2.1731983472853584 2.0 19.804733355767166 3.3218030006606134 2.0 39.903496079933689 2.7273468210753347 2.0 19.575089835671932 2.2531713097781871 2.0 40.320759965488207 1.6644689297971551 2.0 </DataArray>
<DataArray Name="forces" NumberOfComponents="3" format="ascii" type="Float32">0.0 0.0 0.0 0.0 0.0 0.0 0.0 0.0 0.0 0.0 0.0 0.0 -0.25419071791506365 0.67151694195618439 0.0 1.5632857506069471 -0.42858384163732666 0.0 -2.086075632000699 -1.2118559463607281 0.0 0.0 0.0 0.0 0.0 0.0 0.0 0.27361536571779976 0.65395114090276441 0.0 0.0 0.0 0.0 -1.6311995434456292 -0.48721758081147631 0.0 0.0 0.0 0.0 -2.5686207039657734 -1.1016255760818325 0.0 0.0 0.0 0.0 0.0 0.0 0.0 -0.57581416932875384 0.22596937312803914 0.0 -0.64824481268872525 0.56719456724873907 0.0 0.0 0.0 0.0 0.0 0.0 0.0 -0.43976002744387405 -1.258756830046754 0.0 0.72197578509732141 -0.19940250675768839 0.0 0.55795081423531512 -0.35964650764941236 0.0 0.0 0.0 0.0 -0.63401573336686745 -0.28126310968376989 0.0 0.16610126906199918 -0.6775523036874711 0.0 0.0 0.0 0.0 0.0 0.0 0.0 -0.46566531935082123 -0.4273473221615387 0.0 0.0826698728524764 -0.57008586444600384 0.0 0.14095179260267759 -0.87576231451086084 0.0 0.0 0.0 0.0 -0.88103829084771146 -0.40040662021374007 0.0 0.1107504152964261 0.56957055990347916 0.0 0.14706220760433839 -0.73498144825168277 0.0 -1.4440044091880295 -0.4017762883455287 0.0 2.0460285571077241 -1.8709827027877237 0.0 -0.27361536571779976 -0.65395114090276441 0.0 0.47106860525568273 1.6789997240913159 0.0 2.874458968629602 -0.87961246261772053 0.0 0.43584001543638012 -0.27394442310491124 0.0 0.78821896658109902 -0.51921951727186699 0.0 0.54124119763616585 -0.08533277308869619 0.0 -0.080027456504522976 -0.67730688706771658 0.0 -0.52576845036958686 0.37162622648558269 0.0 0.58683483587212149 0.26580136972107665 0.0 -0.11892037156725317 0.69301404365016428 0.0 -0.28816821416471228 0.9393422493113881 0.0 0.48516979876928151 0.40660496926057843 0.0 -0.078265396132507048 0.88126651796347111 0.0 0.39080305572279855 0.44590490596155413 0.0 0.37948481982848681 -0.61506884565129316 0.0 -0.012152831108192208 0.89382463627835373 0.0 -1.1823902492652629 1.5053270934187486 0.0 1.1601309381899465 -1.1917821432798397 0.0 1.3006657435816431 2.1488604178870947 0.0 -1.0970205132290183 1.0858472938570178 0.0 0.32140865057819962 1.1229719842676671 0.0 0.12330746542360504 -0.3540182354170342 0.0 1.0934648647204019 2.9144853961849 0.0 -1.5637735972516977 1.8941584948573511 0.0 0.12897245943783556 -1.336973840455197 0.0 -0.042730410993773615 -2.0617808740448926 0.0 </DataArray>
<DataArray Name="radii" format="ascii" type="Float32">1 1 1 1 1 1 1 1 1 1 1 1 1 1 1 1 1 1 1 1 1 1 1 1 1 1 1 1 1 1 1 1 1 1 1 1 1 1 1 1 1 1 1 1 1 1 1 1 1 1 1 1 1 1 1 1 1 1 1 1 1 1 1 </DataArray>
</PointData>
<CellData/>
</Piece>
</UnstructuredGrid>
</VTKFile>
