<?xml version="1.0" ?>
<VTKFile byte_order="LittleEndian" type="UnstructuredGrid" version="0.1">
<UnstructuredGrid>
<Piece NumberOfCells="0" NumberOfPoints="22">
<Points>
<DataArray NumberOfComponents="3" format="ascii" type="Float32">0.99819708439216182 1 0.98051588999725303 2.9999998548862932 1 1.0 6.3844618120603602 1 0.96171128888925883 8.8130243022344796 1.1644795919628121 1.1867918556326489 1.2001587452881897 1.1546641302428966 3.1658626248233031 4.8483848219066266 1 2.2478946906661164 7.2655223637030169 1.1001217025525476 2.7469826282803416 9.0 1 3.7117187083003627 0.96722737277725268 1 6.0102629193666557 4.8395372190706984 1.1716884468122677 6.7458351127546656 8.9000000000000004 1.1705848547543316 5.8854712134159159 0.94643866755814876 1 8.0092718756795378 2.9168465704264506 1 7.6861160282572589 9.0 1 8.2977543949407355 5.5900241062127067 1 9.0 2.9879607416200376 1.1222285373249541 5.251064941927452 1.3689205712937427 2.5756680924689492 4.8501936839125399 5.0808065423871156 1.0413234399500049 4.5608008151720414 7.0491819565225438 1.1726182512790202 7.4250105143752814 3.3298419969703605 3.3136903870763481 4.8632319584554136 3.561442169333306 2.0400653129021604 3.317775947419948 7.0238953456389757 1 4.697874079386871 </DataArray>
</Points>
<Cells>
<DataArray Name="connectivity" format="ascii" type="Int32">0</DataArray>
<DataArray Name="offsets" format="ascii" type="Int32">0</DataArray>
<DataArray Name="types" format="ascii" type="UInt8">1</DataArray>
</Cells>
<PointData>
<DataArray Name="Points" NumberOfComponents="3" format="ascii" type="Float32">0.99819708439216182 1 0.98051588999725303 2.9999998548862932 1 1.0 6.3844618120603602 1 0.96171128888925883 8.8130243022344796 1.1644795919628121 1.1867918556326489 1.2001587452881897 1.1546641302428966 3.1658626248233031 4.8483848219066266 1 2.2478946906661164 7.2655223637030169 1.1001217025525476 2.7469826282803416 9.0 1 3.7117187083003627 0.96722737277725268 1 6.0102629193666557 4.8395372190706984 1.1716884468122677 6.7458351127546656 8.9000000000000004 1.1705848547543316 5.8854712134159159 0.94643866755814876 1 8.0092718756795378 2.9168465704264506 1 7.6861160282572589 9.0 1 8.2977543949407355 5.5900241062127067 1 9.0 2.9879607416200376 1.1222285373249541 5.251064941927452 1.3689205712937427 2.5756680924689492 4.8501936839125399 5.0808065423871156 1.0413234399500049 4.5608008151720414 7.0491819565225438 1.1726182512790202 7.4250105143752814 3.3298419969703605 3.3136903870763481 4.8632319584554136 3.561442169333306 2.0400653129021604 3.317775947419948 7.0238953456389757 1 4.697874079386871 </DataArray>
<DataArray Name="forces" NumberOfComponents="3" format="ascii" type="Float32">-0.0020917913401284649 -0.0016102915452326659 -0.022605990206456213 1.0507895304989745e-06 0.0 0.0 0.0043493330880434739 -0.0020025639358691384 -0.044423595856583516 0.015111146914950625 0.00077820987316858559 -0.015324445518512487 0.00017683123332302552 -0.010609953685801856 0.0038377037220337588 -0.00094786318400072456 -0.014756454820901658 0.00022552960046473558 -0.0068486347801616559 0.0046114498620907201 -0.0036761592468171969 0.012144026757143095 -0.0022787319885934076 -0.012629411345789892 -0.038023686477484303 -0.0056331489656660134 0.010589287112264952 0.011126464534226291 0.0091421178014024617 -0.0046395822629680117 0.11602269851314294 0.007861700515208488 -0.010580569902243313 -0.062143303258631252 0.0 0.016945413902336566 0.0079090956686072161 -0.005649639095240762 0.015592620508933149 0.054068560389831821 -0.0047803077760265591 0.024057092543810343 -0.03667655616710136 -0.0044237608164193355 0.0408194614203259 -0.039305469240601944 -0.048242603867936676 0.00074976417852800833 -0.0072612797076016186 0.023838333247924618 0.010135426451479215 -0.0010374056935962758 -0.0015827936130648652 -0.024522506787404835 -0.0016177837616673726 0.010220902034624463 0.017822569025453434 0.0047744130592939958 0.033154211453697326 -0.0060018388583548314 -0.01029224637294006 0.026758155817083726 -0.012094822750646843 -0.025650493858046415 -0.0096371565184882237 0.0074774449117733103 </DataArray>
<DataArray Name="radii" format="ascii" type="Float32">1 1 1 1.2 1.2 1 1 1 1 1.2 1.2 1 1 1 1 1.2 1 1 1.2 1 1 1 </DataArray>
</PointData>
<CellData/>
</Piece>
</UnstructuredGrid>
</VTKFile>
