<?xml version="1.0" ?>
<VTKFile byte_order="LittleEndian" type="UnstructuredGrid" version="0.1">
<UnstructuredGrid>
<Piece NumberOfCells="0" NumberOfPoints="164">
<Points>
<DataArray NumberOfComponents="3" format="ascii" type="Float32">0.96100550099459858 1 2.0 3.6878180689748734 4.8410581504224801 2.0 7.031385437923781 1 2.0 11.540166382273355 4.4045556186796473 2.0 13.300843422204501 1 2.0 16.0 1.0 2.0 18.21402429567167 1 2.0 21.671796260389399 1.9279679389703588 2.0 23.984814306996018 4.7299571807602172 2.0 27.716808159776342 1 2.0 29.990631513015718 4.6956370295295038 2.0 33.903445643056706 1 2.0 35.190441571872029 1.9210053511596252 2.0 39.294873347808526 4.1265711188508627 2.0 43.565002752160645 1 2.0 45.325995568023544 1.9270322065855583 2.0 49.0 1.0 2.0 53.176175627154819 4.6885802456725889 2.0 55.109717222461576 1 2.0 56.488249978694533 1.9365730401768702 2.0 61.333879884240133 1 2.0 64.007329747268116 2.7906108001540164 2.0 68.42144110600961 1 2.0 70.060441191042727 1 2.0 73.0 1.0 2.0 76.0 1.0 2.0 78.308316713903878 1 2.0 80.566189641259598 2.6936321779216974 2.0 84.902212054231896 1 2.0 86.369759579736751 1.8892240482262075 2.0 90.490624224710587 1.9576104705517927 2.0 94.299124284439813 6.0369818163634088 2.0 98.323300478737934 3.9844470466030577 2.0 103.82201338642301 2.327919667611634 2.0 6.727938710693782 2.6864257244233651 2.0 8.6905527572945616 1 2.0 21.944822521227255 4.7738646823695738 2.0 26.117176579760464 4.711321902883852 2.0 32.460948646270253 1 2.0 36.086371563420265 5.0475810054618515 2.0 44.371508160320971 4.2693662890315771 2.0 47.783512197092847 2.7467874336119245 2.0 50.938086897961192 1 2.0 60.314681075012132 2.1752057501814481 2.0 61.898964940159061 3.1829533150146969 2.0 83.556698817143399 5.279663019495259 2.0 90.093921546101015 5.8683000615280712 2.0 90.714665734983427 4.4803291150639453 2.0 92.980717159969771 3.7148659801561212 2.0 95.889948455454658 3.0152703111713461 2.0 100.99630568628365 1 2.0 2.1641228498548517 1.001535715337954 2.0 11.470084167586469 1.9182775626834916 2.0 23.058475857823002 1 2.0 26.189411387023071 1.9226870425371752 2.0 28.850422770668793 1.8838375668029368 2.0 33.371808026517236 4.1002581607392443 2.0 38.913257578103298 1.9263192670292402 2.0 46.303540646462423 4.3098012884277805 2.0 49.573774547752016 3.5842496947036131 2.0 55.716109170830691 4.2343830923921182 2.0 66.681550305394097 4.3873045825232229 2.0 79.827165991203955 1.1808685277653161 2.0 88.66085189496853 2.0338593364154924 2.0 89.964161644510625 3.6769005645734198 2.0 94.145576923471978 2.0444686434137149 2.0 97.698385547358569 2.2904291440443321 2.0 101.18245377808582 5.0244682143911898 2.0 38.387315042682076 6.0788845667310367 2.0 41.843636586627255 1.898639671269295 2.0 59.391829936836537 1 2.0 79.439815247888276 4.0349611640221354 2.0 86.116084699243487 4.1670748495926482 2.0 93.544626504916138 1 2.0 97.225032625884083 1 2.0 3.04252583377543 2.0060521693012228 2.0 9.2264886087268536 4.770102142459554 2.0 18.336026094236949 3.9583298271295977 2.0 24.422828971305471 1 2.0 32.281905656672556 6.7810398645339687 2.0 37.111962540543175 1 2.0 40.933964028938746 5.3570376287574222 2.0 46.974696516813928 1 2.0 54.250128959962417 2.0614950137489072 2.0 58.756264857271944 2.8531804017706195 2.0 65.021350033605529 1 2.0 82.224990942168773 1.927536040549586 2.0 84.187947024198579 3.0325803742831918 2.0 91.249114913699756 3.1316880293960034 2.0 91.722955233565955 6.4161689337041432 2.0 97.162690512563671 7.1318299154290585 2.0 102.14308717098818 1.1820694379346615 2.0 35.279195725290698 4.1642394987081746 2.0 42.153519009591285 3.4702060536939952 2.0 58.131571592256634 4.7879186416357751 2.0 85.86827712136386 6.0918962530217424 2.0 87.593246012175854 4.6380435474769763 2.0 91.832772659081101 1 2.0 94.962527123244982 1 2.0 9.0595159086486117 3.0409539103438372 2.0 27.304140371391007 3.4061827447922512 2.0 30.860780891793766 1.8747502647245775 2.0 34.510800869172357 3.0705983708335447 2.0 36.906372605196331 3.0492132235417868 2.0 66.608564798181291 1.9482031064920662 2.0 88.831382683496003 3.6098924944788755 2.0 94.678634276952067 3.9994764704075609 2.0 100.21973578648702 2.8939690397229971 2.0 99.04372137738892 5.2885906526372892 2.0 40.484864853980632 7.5721896672126672 2.0 40.388231142884145 1 2.0 81.036619581714646 5.4500211123499049 2.0 5.1773014770681431 3.2260012870947352 2.0 13.227744528610987 5.8401965496081214 2.0 21.019021486950226 3.6272557100452696 2.0 23.307170051551555 2.4417038726080622 2.0 31.825680673733313 4.7183001860960134 2.0 36.215855535483804 1.2402861030518511 2.0 40.44181761287652 2.6204377282124414 2.0 46.387901194973757 2.662126578192769 2.0 50.912290327988494 3.1191073182734956 2.0 57.418051979536145 2.667255951647924 2.0 62.998561184689173 1.9217602230730557 2.0 81.374879336627188 1 2.0 87.370078946838831 1.9145134871925178 2.0 90.160811218095063 1 2.0 93.273191232103471 7.8638907143314913 2.0 97.383671251246682 4.8672139266527852 2.0 103.30942930693222 4.441465549617277 2.0 36.509584475812318 6.6808150756387956 2.0 43.29178677169714 5.5203414317645008 2.0 60.250466863276344 4.66012379324106 2.0 82.253881908580325 4.5329575058051939 2.0 89.121644338809119 8.1697585838274698 2.0 92.300022749912088 4.9101237216302938 2.0 96.096886296969075 1.882712093116411 2.0 10.393791201898116 2.8357191049310653 2.0 24.828465081785215 2.6390614579853962 2.0 29.783030712582313 2.8750697230576883 2.0 33.23508730242073 1.8932425873243794 2.0 37.918312400691683 1.9368381041758349 2.0 64.59452822988645 4.7173363946432598 2.0 88.704506015099497 1 2.0 92.568410165476095 1.935470283277102 2.0 98.43469056399644 1 2.0 101.72424430971249 2.7760496196771474 2.0 37.671963348934888 4.3142829476461406 2.0 43.452215357392824 2.0966515655883171 2.0 78.012837107459205 3.8884480595225788 2.0 5.0442927932633079 1.9065570344536547 2.0 19.453198561251924 1.9315775999500715 2.0 29.451009532981079 6.5851428858289838 2.0 42.063857682857922 4.5028409312407467 2.0 52.625143604706544 1.9316454262548277 2.0 83.387287811701768 1.8663267438121744 2.0 85.403802695514457 2.7523462473911846 2.0 95.843017419656562 5.274914097401437 2.0 84.089675689274316 7.267538722096293 2.0 88.160571262412972 5.9901183816600714 2.0 28.592281960847554 4.0585689347607747 2.0 31.954698877576242 2.8786810558544396 2.0 68.423998333323638 2.7451366313774361 2.0 99.669162317986235 1.878988555098049 2.0 38.003718548539659 8.6948095174588254 2.0 </DataArray>
</Points>
<Cells>
<DataArray Name="connectivity" format="ascii" type="Int32">0</DataArray>
<DataArray Name="offsets" format="ascii" type="Int32">0</DataArray>
<DataArray Name="types" format="ascii" type="UInt8">1</DataArray>
</Cells>
<PointData>
<DataArray Name="Points" NumberOfComponents="3" format="ascii" type="Float32">0.96100550099459858 1 2.0 3.6878180689748734 4.8410581504224801 2.0 7.031385437923781 1 2.0 11.540166382273355 4.4045556186796473 2.0 13.300843422204501 1 2.0 16.0 1.0 2.0 18.21402429567167 1 2.0 21.671796260389399 1.9279679389703588 2.0 23.984814306996018 4.7299571807602172 2.0 27.716808159776342 1 2.0 29.990631513015718 4.6956370295295038 2.0 33.903445643056706 1 2.0 35.190441571872029 1.9210053511596252 2.0 39.294873347808526 4.1265711188508627 2.0 43.565002752160645 1 2.0 45.325995568023544 1.9270322065855583 2.0 49.0 1.0 2.0 53.176175627154819 4.6885802456725889 2.0 55.109717222461576 1 2.0 56.488249978694533 1.9365730401768702 2.0 61.333879884240133 1 2.0 64.007329747268116 2.7906108001540164 2.0 68.42144110600961 1 2.0 70.060441191042727 1 2.0 73.0 1.0 2.0 76.0 1.0 2.0 78.308316713903878 1 2.0 80.566189641259598 2.6936321779216974 2.0 84.902212054231896 1 2.0 86.369759579736751 1.8892240482262075 2.0 90.490624224710587 1.9576104705517927 2.0 94.299124284439813 6.0369818163634088 2.0 98.323300478737934 3.9844470466030577 2.0 103.82201338642301 2.327919667611634 2.0 6.727938710693782 2.6864257244233651 2.0 8.6905527572945616 1 2.0 21.944822521227255 4.7738646823695738 2.0 26.117176579760464 4.711321902883852 2.0 32.460948646270253 1 2.0 36.086371563420265 5.0475810054618515 2.0 44.371508160320971 4.2693662890315771 2.0 47.783512197092847 2.7467874336119245 2.0 50.938086897961192 1 2.0 60.314681075012132 2.1752057501814481 2.0 61.898964940159061 3.1829533150146969 2.0 83.556698817143399 5.279663019495259 2.0 90.093921546101015 5.8683000615280712 2.0 90.714665734983427 4.4803291150639453 2.0 92.980717159969771 3.7148659801561212 2.0 95.889948455454658 3.0152703111713461 2.0 100.99630568628365 1 2.0 2.1641228498548517 1.001535715337954 2.0 11.470084167586469 1.9182775626834916 2.0 23.058475857823002 1 2.0 26.189411387023071 1.9226870425371752 2.0 28.850422770668793 1.8838375668029368 2.0 33.371808026517236 4.1002581607392443 2.0 38.913257578103298 1.9263192670292402 2.0 46.303540646462423 4.3098012884277805 2.0 49.573774547752016 3.5842496947036131 2.0 55.716109170830691 4.2343830923921182 2.0 66.681550305394097 4.3873045825232229 2.0 79.827165991203955 1.1808685277653161 2.0 88.66085189496853 2.0338593364154924 2.0 89.964161644510625 3.6769005645734198 2.0 94.145576923471978 2.0444686434137149 2.0 97.698385547358569 2.2904291440443321 2.0 101.18245377808582 5.0244682143911898 2.0 38.387315042682076 6.0788845667310367 2.0 41.843636586627255 1.898639671269295 2.0 59.391829936836537 1 2.0 79.439815247888276 4.0349611640221354 2.0 86.116084699243487 4.1670748495926482 2.0 93.544626504916138 1 2.0 97.225032625884083 1 2.0 3.04252583377543 2.0060521693012228 2.0 9.2264886087268536 4.770102142459554 2.0 18.336026094236949 3.9583298271295977 2.0 24.422828971305471 1 2.0 32.281905656672556 6.7810398645339687 2.0 37.111962540543175 1 2.0 40.933964028938746 5.3570376287574222 2.0 46.974696516813928 1 2.0 54.250128959962417 2.0614950137489072 2.0 58.756264857271944 2.8531804017706195 2.0 65.021350033605529 1 2.0 82.224990942168773 1.927536040549586 2.0 84.187947024198579 3.0325803742831918 2.0 91.249114913699756 3.1316880293960034 2.0 91.722955233565955 6.4161689337041432 2.0 97.162690512563671 7.1318299154290585 2.0 102.14308717098818 1.1820694379346615 2.0 35.279195725290698 4.1642394987081746 2.0 42.153519009591285 3.4702060536939952 2.0 58.131571592256634 4.7879186416357751 2.0 85.86827712136386 6.0918962530217424 2.0 87.593246012175854 4.6380435474769763 2.0 91.832772659081101 1 2.0 94.962527123244982 1 2.0 9.0595159086486117 3.0409539103438372 2.0 27.304140371391007 3.4061827447922512 2.0 30.860780891793766 1.8747502647245775 2.0 34.510800869172357 3.0705983708335447 2.0 36.906372605196331 3.0492132235417868 2.0 66.608564798181291 1.9482031064920662 2.0 88.831382683496003 3.6098924944788755 2.0 94.678634276952067 3.9994764704075609 2.0 100.21973578648702 2.8939690397229971 2.0 99.04372137738892 5.2885906526372892 2.0 40.484864853980632 7.5721896672126672 2.0 40.388231142884145 1 2.0 81.036619581714646 5.4500211123499049 2.0 5.1773014770681431 3.2260012870947352 2.0 13.227744528610987 5.8401965496081214 2.0 21.019021486950226 3.6272557100452696 2.0 23.307170051551555 2.4417038726080622 2.0 31.825680673733313 4.7183001860960134 2.0 36.215855535483804 1.2402861030518511 2.0 40.44181761287652 2.6204377282124414 2.0 46.387901194973757 2.662126578192769 2.0 50.912290327988494 3.1191073182734956 2.0 57.418051979536145 2.667255951647924 2.0 62.998561184689173 1.9217602230730557 2.0 81.374879336627188 1 2.0 87.370078946838831 1.9145134871925178 2.0 90.160811218095063 1 2.0 93.273191232103471 7.8638907143314913 2.0 97.383671251246682 4.8672139266527852 2.0 103.30942930693222 4.441465549617277 2.0 36.509584475812318 6.6808150756387956 2.0 43.29178677169714 5.5203414317645008 2.0 60.250466863276344 4.66012379324106 2.0 82.253881908580325 4.5329575058051939 2.0 89.121644338809119 8.1697585838274698 2.0 92.300022749912088 4.9101237216302938 2.0 96.096886296969075 1.882712093116411 2.0 10.393791201898116 2.8357191049310653 2.0 24.828465081785215 2.6390614579853962 2.0 29.783030712582313 2.8750697230576883 2.0 33.23508730242073 1.8932425873243794 2.0 37.918312400691683 1.9368381041758349 2.0 64.59452822988645 4.7173363946432598 2.0 88.704506015099497 1 2.0 92.568410165476095 1.935470283277102 2.0 98.43469056399644 1 2.0 101.72424430971249 2.7760496196771474 2.0 37.671963348934888 4.3142829476461406 2.0 43.452215357392824 2.0966515655883171 2.0 78.012837107459205 3.8884480595225788 2.0 5.0442927932633079 1.9065570344536547 2.0 19.453198561251924 1.9315775999500715 2.0 29.451009532981079 6.5851428858289838 2.0 42.063857682857922 4.5028409312407467 2.0 52.625143604706544 1.9316454262548277 2.0 83.387287811701768 1.8663267438121744 2.0 85.403802695514457 2.7523462473911846 2.0 95.843017419656562 5.274914097401437 2.0 84.089675689274316 7.267538722096293 2.0 88.160571262412972 5.9901183816600714 2.0 28.592281960847554 4.0585689347607747 2.0 31.954698877576242 2.8786810558544396 2.0 68.423998333323638 2.7451366313774361 2.0 99.669162317986235 1.878988555098049 2.0 38.003718548539659 8.6948095174588254 2.0 </DataArray>
<DataArray Name="forces" NumberOfComponents="3" format="ascii" type="Float32">-0.98026601724613349 -0.22033842511728499 0.0 -0.37350204286952021 1.3612282281426873 0.0 0.35324459738484937 -0.34470819929642338 0.0 -0.21718840525670829 0.57702594896551884 0.0 0.58283717991283268 -0.3046085453401895 0.0 0.0 0.0 0.0 -0.9205842426619516 -0.70634822515555895 0.0 -0.041234828999448192 -1.8107831458425976 0.0 0.050137040577719949 1.4784148776896289 0.0 -0.1551519667771071 -1.5835901914710351 0.0 0.03581795829762191 1.0403983159899768 0.0 -0.16859024996042976 -1.2139079800273702 0.0 -0.11792019329126546 -1.9858126601853472 0.0 0.3657745329724349 0.90267586823307155 0.0 0.20869603386361515 -2.2971699891737472 0.0 0.8277251248552705 -1.8343061216841297 0.0 0.0 0.0 0.0 0.5100458521517669 1.9466624160243708 0.0 0.033668977228148975 -1.6843389107341271 0.0 0.0066626430441889539 -1.5944631903909758 0.0 0.033635742707161853 -1.2726941600888451 0.0 0.54144862320049492 1.0133561938486806 0.0 0.43654270228506969 -0.40257041093607804 0.0 0.14958487399538289 -0.012566370614359173 0.0 0.0 0.0 0.0 0.0 0.0 0.0 -0.24792324495522747 -0.047853031487396329 0.0 -1.7477916113733984 0.030601634903328685 0.0 -0.14500269939176563 -2.5073803708350018 0.0 0.06857694627217592 -2.7847492292926721 0.0 0.20106902035161478 -1.0656122341609287 0.0 0.03465891547453559 1.1516861745469842 0.0 0.84166795508055925 0.78269291398043328 0.0 1.25444259245698 -0.4162875003943049 0.0 0.94276313450142524 0.36308819635319017 0.0 0.13203299199937235 -0.012566370614359173 0.0 0.10149000067681491 0.95573759367810052 0.0 0.10718150306461646 0.90054275635011372 0.0 0.24193548641805265 -1.6615469533767357 0.0 -0.68416404604573244 0.94626063611388955 0.0 0.68144729082485611 1.3238970901852021 0.0 0.4946458486211901 0.036833277986622295 0.0 -0.68530508497872233 -1.0033515404624631 0.0 -0.026992306160668028 -0.5471412148085002 0.0 -0.18896203958730329 0.97218155675327034 0.0 -0.1397165113641009 0.55214238761234458 0.0 0.42844111204921642 0.65792598493738175 0.0 -0.47714069024285388 -0.33681558238578629 0.0 -0.14374012267768738 0.090672463299053874 0.0 0.025460864357176958 0.94784509724626287 0.0 0.58351780459845326 -1.3822474825219468 0.0 -0.32594353457460201 -1.0168531915789099 0.0 0.59095754931905908 -2.0543853669412182 0.0 0.13611475888016958 -1.1441102106553445 0.0 -0.25588690385597279 -1.9435373405645033 0.0 -0.25961255807851247 -2.9201576798802424 0.0 0.088464326011379768 1.4022797760789223 0.0 0.15751024513082812 -1.8522284039863686 0.0 0.84512743207654839 0.32632898276820566 0.0 -1.2230412899782894 0.41255846395832824 0.0 -0.26902452107319919 0.64386853134402311 0.0 0.82535516059793612 1.3936672953740823 0.0 -0.63174143402112737 -0.942214364091013 0.0 1.2024659331189902 -0.43674542027803959 0.0 -0.029530103569526345 0.37423776070469189 0.0 -0.2365120657030873 -0.72173153877494589 0.0 0.23396972661745385 -0.16675126534454796 0.0 1.1754058854765426 1.6997244331760524 0.0 -0.28898660396819409 0.63041321600714639 0.0 0.42244738773749257 -2.5480539123696415 0.0 -0.65086446639990614 -1.0466681482866271 0.0 -1.2491623768153353 0.79534071490539304 0.0 -0.22257032787648001 0.70472713121071762 0.0 -0.042226033937559637 -2.275452955476494 0.0 0.019492638957581535 -2.3948735137346562 0.0 -0.76854721977218787 0.13776764359301502 0.0 -0.34867176262048011 0.10089808394440719 0.0 -1.5906888829687118 1.1956088320185625 0.0 -0.42086499750884598 -1.3527916634998511 0.0 1.1083641221909684 1.4872225154778995 0.0 -0.23055256427911497 -1.9552041136856535 0.0 1.017560703272566 1.0582212745646857 0.0 0.67357059186720314 -0.4697221217166459 0.0 -0.24350164699439292 -0.05764334553535818 0.0 0.43698621497837531 0.3108894059191552 0.0 0.035264355920126778 -1.2515723430356289 0.0 -1.2820336493819968 -1.8216404553499521 0.0 -0.51620961389960085 1.2835352549484966 0.0 -0.6192392193729358 0.32635372404687224 0.0 -0.02133025297388913 0.8904770874508896 0.0 1.1431811948312713 1.8603123525391503 0.0 0.31056835762107132 -0.62958873607318866 0.0 -0.00012115089687880776 -0.16636951590190485 0.0 0.36857890590668896 0.85818666543167355 0.0 -0.46156232645662448 0.45896890271365343 0.0 -0.00016863827425739331 1.2692389779669864 0.0 0.21172119441517423 0.14376872257790049 0.0 -0.25005125821530561 -1.902802261231832 0.0 0.13241251159133963 -2.4378078756726893 0.0 -0.53309686589758076 0.007153033981310614 0.0 -0.24680938951435449 1.0721060366515784 0.0 -0.13590706573578593 -3.1485994766226919 0.0 -0.086384137500600505 -0.12514404100981566 0.0 -0.70894916004495323 0.55532741884983472 0.0 0.26042104122014331 -1.3020999320368551 0.0 0.36260569962727973 0.61251404446585023 0.0 -0.21697059016550446 0.17966999635423053 0.0 1.4673520238644033 0.93039128049886055 0.0 0.13130044263263926 1.0969948259086533 0.0 1.4826603550260091 1.4034447828496808 0.0 0.041330034142766189 -2.2074412080598536 0.0 -0.69898693566635983 1.072084884501828 0.0 0.59518076650339446 1.1755778737616667 0.0 1.0800878079256377 0.88935801770175649 0.0 -0.16631679680637534 1.2660153682152582 0.0 -0.08419296127180198 -0.038208317549007755 0.0 -0.26962041954921356 0.64191433238041362 0.0 -0.45732687942625405 -0.90600058169324293 0.0 0.44276597454747402 -0.16638663052961569 0.0 0.97819354594129515 0.48144330255301582 0.0 -0.9406328329407716 0.31743562832348593 0.0 0.35567911457933155 0.2741713142791069 0.0 0.056386467188113409 -1.9668362583085861 0.0 -0.8094465544467262 -2.0962199395829635 0.0 0.41007543279077607 -2.1490088493365072 0.0 0.33364555461944839 -2.1287997676768611 0.0 -0.13433595958114958 2.1117720434755385 0.0 0.21202250331649741 0.52269895081293061 0.0 0.33517509405557566 0.41272828142506951 0.0 -0.57508153583048627 1.0124436110151209 0.0 -0.23212826965721192 0.92106028577531662 0.0 0.60957065198881588 1.6133720231349116 0.0 -0.75070431543531324 0.96490556812497719 0.0 0.062436382766423659 2.122970049844557 0.0 0.22848681644517368 0.51288313633791738 0.0 -0.15895700703371415 -2.9484504810790257 0.0 -1.115815744734981 0.13887320973273964 0.0 -0.5762664240285722 0.048015012277065096 0.0 -0.40655900591680438 0.71735600688389856 0.0 0.3991946489335072 -0.39170124283177155 0.0 -0.86146522601066267 -1.587799859992896 0.0 -0.418374558104053 0.71485065780279922 0.0 0.18491496101569471 -2.6993900250679563 0.0 -0.47396782205904026 -1.6221849240123447 0.0 0.28152796094842025 -1.9890806702825983 0.0 1.1347608248865841 -0.097264631746153907 0.0 -0.41765510950476653 -0.40664917660922184 0.0 0.70369710671738006 -0.390487365453626 0.0 -1.2656135801008086 -0.11059408104343135 0.0 0.4434405117377378 -2.3490227086414315 0.0 -0.83200743170603386 -1.7200414237422175 0.0 -1.2588440073337808 1.4399055983488547 0.0 0.61795420064973539 0.20028043560985764 0.0 -0.21095571168464944 -1.718336367302878 0.0 -0.25306121064493992 -3.3603547627938855 0.0 -0.10374966176212164 0.30903734505100233 0.0 -0.013832036369904738 0.86807490555289413 0.0 -0.62419240150560296 2.5138571907549081 0.0 -0.097926621763202437 0.85125129773669483 0.0 -0.13919454426380684 0.7199368867164998 0.0 0.69520156830434521 -0.18726826393211152 0.0 0.96013316534214688 0.080308337564580612 0.0 0.39539900991789662 -3.0420549093041105 0.0 -0.88846023381571892 1.3963760149819768 0.0 </DataArray>
<DataArray Name="radii" format="ascii" type="Float32">1 2 1 2 1 1 1 2 2 1 2 1 2 2 1 2 1 2 1 2 1 2 1 1 1 1 1 2 1 2 2 2 2 2 1 1 1 1 1 2 2 1 1 2 1 2 2 1 2 2 1 1 2 1 2 2 2 2 1 1 1 2 1 2 1 2 2 2 2 2 1 2 1 1 1 2 1 2 1 2 1 2 1 2 1 1 2 2 1 1 2 1 1 1 1 2 2 1 1 1 2 2 1 1 2 1 1 2 1 2 1 1 1 2 2 1 1 1 2 1 2 2 2 1 2 1 2 1 1 1 1 2 2 2 2 2 1 2 1 1 2 1 1 2 1 1 1 2 1 2 2 2 1 2 2 2 2 2 2 1 2 1 2 2 </DataArray>
</PointData>
<CellData/>
</Piece>
</UnstructuredGrid>
</VTKFile>
