<?xml version="1.0" ?>
<VTKFile byte_order="LittleEndian" type="UnstructuredGrid" version="0.1">
<UnstructuredGrid>
<Piece NumberOfCells="0" NumberOfPoints="68">
<Points>
<DataArray NumberOfComponents="3" format="ascii" type="Float32">2.3572309536444664 1.0303921331232726 2.1999999999999997 5.3226966070299815 1.0214972730177301 2.1999999999999997 6.8312370740256885 1.1771116455510158 2.1999999999999997 10.348476743188508 1 2.1999999999999997 13.575448701729746 1.1740135253332153 2.1999999999999997 16.022638176313666 1 2.1999999999999997 19.138925799204994 1.025837579216486 2.1999999999999997 20.537672443510711 1 2.1999999999999997 23.17837995163061 1.174600811720631 2.1999999999999997 27.386223326550152 1.046940507107383 2.1999999999999997 29.364687872282769 1 2.1999999999999997 31.905174308244078 1.0277539013544905 2.1999999999999997 35.095041027649842 1.0321124480582653 2.1999999999999997 38.195478590035364 1 2.1999999999999997 40.921925039095441 1.0308419340188213 2.1999999999999997 44.917394654937695 1 2.1999999999999997 46.449062775418426 1.1702248736696961 2.1999999999999997 49.943584604851672 1.0273669948624369 2.1999999999999997 54.01105667090399 1.0340289782812981 2.1999999999999997 56.944136232010457 1.0309545429645937 2.1999999999999997 59.337595745918712 1.0371496334649348 2.1999999999999997 62.683949776056011 1.1686954120573596 2.1999999999999997 66.022951269037364 1.1812175337804791 2.1999999999999997 68.827634152473308 1.1863473936596547 2.1999999999999997 71.902668472813133 1.0250954057172255 2.1999999999999997 73.84633438428564 1.0212005786806078 2.1999999999999997 77.263989102550539 1 2.1999999999999997 80.327675567719311 1 2.1999999999999997 82.613325985375752 1.0300287917159563 2.1999999999999997 87.400938369739052 1.1710090885232112 2.1999999999999997 89.116181500393751 1.161998755487144 2.1999999999999997 93.928077816977577 1.0237981820360842 2.1999999999999997 95.887945317498591 1 2.1999999999999997 100.92082015209837 1.158043608608903 2.1999999999999997 3.8344153709891651 1.1701245148809216 2 8.2884617515064267 1.0214700294236985 2 11.736686185208379 1.1678878763285387 2 17.452256962210214 1.1724893984829774 2 24.95148543728364 1.1639695756414539 2 33.550512713212846 1.1668776800536007 2 42.455619669225314 1.0256436979569183 2 48.327207597754665 1.1601154177843518 2 55.428652127414708 1.0190442631532279 2 60.880183096512759 1.1607147369523305 2 64.391416888584516 1.1536991359585602 2 67.415791260559459 1 2 84.106114105021149 1.1714760707513536 2 85.748359887538996 1.1536991359585602 2 90.80116687181814 1.1685632297740203 2 98.921521704091219 1.0207601025076787 2 1.1269217429514913 1.0190442631532279 2 9.4096322763087734 1 2 14.969554404520391 1 2 21.755547175628088 1 2 26.565389245639352 1.0133308708573687 2 30.618390592872245 1 2 36.310660794810637 1.0190442631532279 2 39.569660330816355 1 2 43.809362489780284 1 2 51.326437775410717 1.0268550938870464 2 52.685768087558039 1.0190442631532279 2 58.341831399070024 1.0190442631532279 2 70.314362492201909 1.0106140277894213 2 75.689732530921887 1.0226589183060821 2 78.8182704672802 1.0269821560266996 2 81.443147751940174 1 2 92.316304035780206 1.0108427508102826 2 97.373751137280394 1 2 </DataArray>
</Points>
<Cells>
<DataArray Name="connectivity" format="ascii" type="Int32">0</DataArray>
<DataArray Name="offsets" format="ascii" type="Int32">0</DataArray>
<DataArray Name="types" format="ascii" type="UInt8">1</DataArray>
</Cells>
<PointData>
<DataArray Name="Points" NumberOfComponents="3" format="ascii" type="Float32">2.3572309536444664 1.0303921331232726 2.1999999999999997 5.3226966070299815 1.0214972730177301 2.1999999999999997 6.8312370740256885 1.1771116455510158 2.1999999999999997 10.348476743188508 1 2.1999999999999997 13.575448701729746 1.1740135253332153 2.1999999999999997 16.022638176313666 1 2.1999999999999997 19.138925799204994 1.025837579216486 2.1999999999999997 20.537672443510711 1 2.1999999999999997 23.17837995163061 1.174600811720631 2.1999999999999997 27.386223326550152 1.046940507107383 2.1999999999999997 29.364687872282769 1 2.1999999999999997 31.905174308244078 1.0277539013544905 2.1999999999999997 35.095041027649842 1.0321124480582653 2.1999999999999997 38.195478590035364 1 2.1999999999999997 40.921925039095441 1.0308419340188213 2.1999999999999997 44.917394654937695 1 2.1999999999999997 46.449062775418426 1.1702248736696961 2.1999999999999997 49.943584604851672 1.0273669948624369 2.1999999999999997 54.01105667090399 1.0340289782812981 2.1999999999999997 56.944136232010457 1.0309545429645937 2.1999999999999997 59.337595745918712 1.0371496334649348 2.1999999999999997 62.683949776056011 1.1686954120573596 2.1999999999999997 66.022951269037364 1.1812175337804791 2.1999999999999997 68.827634152473308 1.1863473936596547 2.1999999999999997 71.902668472813133 1.0250954057172255 2.1999999999999997 73.84633438428564 1.0212005786806078 2.1999999999999997 77.263989102550539 1 2.1999999999999997 80.327675567719311 1 2.1999999999999997 82.613325985375752 1.0300287917159563 2.1999999999999997 87.400938369739052 1.1710090885232112 2.1999999999999997 89.116181500393751 1.161998755487144 2.1999999999999997 93.928077816977577 1.0237981820360842 2.1999999999999997 95.887945317498591 1 2.1999999999999997 100.92082015209837 1.158043608608903 2.1999999999999997 3.8344153709891651 1.1701245148809216 2 8.2884617515064267 1.0214700294236985 2 11.736686185208379 1.1678878763285387 2 17.452256962210214 1.1724893984829774 2 24.95148543728364 1.1639695756414539 2 33.550512713212846 1.1668776800536007 2 42.455619669225314 1.0256436979569183 2 48.327207597754665 1.1601154177843518 2 55.428652127414708 1.0190442631532279 2 60.880183096512759 1.1607147369523305 2 64.391416888584516 1.1536991359585602 2 67.415791260559459 1 2 84.106114105021149 1.1714760707513536 2 85.748359887538996 1.1536991359585602 2 90.80116687181814 1.1685632297740203 2 98.921521704091219 1.0207601025076787 2 1.1269217429514913 1.0190442631532279 2 9.4096322763087734 1 2 14.969554404520391 1 2 21.755547175628088 1 2 26.565389245639352 1.0133308708573687 2 30.618390592872245 1 2 36.310660794810637 1.0190442631532279 2 39.569660330816355 1 2 43.809362489780284 1 2 51.326437775410717 1.0268550938870464 2 52.685768087558039 1.0190442631532279 2 58.341831399070024 1.0190442631532279 2 70.314362492201909 1.0106140277894213 2 75.689732530921887 1.0226589183060821 2 78.8182704672802 1.0269821560266996 2 81.443147751940174 1 2 92.316304035780206 1.0108427508102826 2 97.373751137280394 1 2 </DataArray>
<DataArray Name="forces" NumberOfComponents="3" format="ascii" type="Float32">0.055944110694383542 0.15143016279340266 0.0 -0.0039191990798592702 0.032733868478925648 0.0 0.026619791917851132 0.31242516422433769 0.0 0.10129860715570382 -0.086232955066823672 0.0 -0.01356877661149114 0.27108270522776196 0.0 0.028600846171485728 -0.08211658448350824 0.0 0.087745275403753653 0.090652515413178245 0.0 0.0032415502766791615 -0.079022206197755504 0.0 -0.08785874165400176 0.27891967141502649 0.0 1.3344368872144077 0.37225776947156375 0.0 -0.5571735850024031 0.0 0.0 -0.019242881325997052 0.11622462490056401 0.0 -0.20843310426918182 0.17438667986220327 0.0 -0.42547469164721213 0.0 0.0 0.0031769826008233304 0.15743247186262532 0.0 0.067048787745114136 -0.065902203068090151 0.0 -0.057381051102780467 0.22052553990169849 0.0 -0.031155701971464556 0.11106160195157434 0.0 0.093388330550599807 0.19996156611296539 0.0 -0.10152756722639644 0.15893516717331507 0.0 0.39146267558462422 0.24160474000618387 0.0 -0.10331238028411627 0.20011583997089716 0.0 0.012035338773800475 0.36721565130609118 0.0 0.049769923332290023 0.43567039379622252 0.0 0.37794063072089257 0.080748678471914581 0.0 -0.11852400680522618 0.028774669802088374 0.0 -0.014155558256650658 -0.012273129908761072 0.0 -0.22739048328988049 -0.0073696545523458772 0.0 -0.072195575702857284 0.1465816010276485 0.0 0.045484584520998239 0.23099039218202008 0.0 0.0038869610050629166 0.11075318448787178 0.0 0.53687805973949321 0.063438047161085753 0.0 -0.31221422810013494 0.0 0.0 0.30312452537362067 0.057974245601114062 0.0 0.0079325604141222694 0.21918631520473117 0.0 0.011742313466228338 0.032370319910765111 0.0 -0.004949186301047459 0.18933978532807502 0.0 0.0029748330085362928 0.25074419433024814 0.0 0.14983715383525109 0.13705253560763969 0.0 -0.093504305222723794 0.17585935360203658 0.0 0.0097829810017074914 0.088065292368111128 0.0 -0.063716492424105931 0.08562123147099665 0.0 0.11229102106997735 0.0 0.0 0.044244107800318733 0.093618767520651097 0.0 -0.079236165497594047 0.0 0.0 0.015644006127176646 -0.25493526159500746 0.0 -0.047750501512696886 0.23722197529108846 0.0 0.033849135974940547 0.0 0.0 0.054979250755462172 0.19835195082365525 0.0 0.099438843644504171 0.02289679327113233 0.0 -0.97518321858866275 0.0 0.0 -0.001618042779490847 -0.14741261557235166 0.0 -0.062194312755175063 -0.18873619973932576 0.0 -0.085717800144791023 -0.17923867185814144 0.0 -0.76316654355098035 -0.076241614307210229 0.0 -0.095170732285134507 -0.10184176974770633 0.0 1.0017176476230936 0.0 0.0 -0.17269714959043775 -0.089340380320406892 0.0 -0.074539546170229398 -0.088065292368111128 0.0 -0.027350559397038232 0.10423060650995272 0.0 -0.017064668109503245 0.0 0.0 -0.46639112998752574 0.0 0.0 0.26410151194567566 -0.11249617037362812 0.0 -0.071141117814432386 0.04823529170528143 0.0 -0.029977227714541199 0.10592617057117013 0.0 -0.089486841770375469 -0.12928205513556182 0.0 0.2688849214383543 -0.1094440060137042 0.0 -0.11976825379975048 -0.056418751910851453 0.0 </DataArray>
<DataArray Name="radii" format="ascii" type="Float32">1.2 1.2 1.4 1 1.4 1 1.2 1 1.4 1.2 1 1.2 1.2 1 1.2 1 1.4 1.2 1.2 1.2 1.2 1.4 1.4 1.4 1.2 1.2 1 1 1.2 1.4 1.4 1.2 1 1.4 1.4 1.2 1.4 1.4 1.4 1.4 1.2 1.4 1.2 1.4 1.4 1.2 1.4 1.4 1.4 1.2 1.2 1 1 1 1.2 1 1.2 1 1 1.2 1.2 1.2 1.2 1.2 1.2 1 1.2 1 </DataArray>
</PointData>
<CellData/>
</Piece>
</UnstructuredGrid>
</VTKFile>
