<?xml version="1.0" ?>
<VTKFile byte_order="LittleEndian" type="UnstructuredGrid" version="0.1">
<UnstructuredGrid>
<Piece NumberOfCells="0" NumberOfPoints="34">
<Points>
<DataArray NumberOfComponents="3" format="ascii" type="Float32">1 1 2.0 4.0 1 2.0 7.0 1 2.0 10.0 1 2.0 13.0 1 2.0 15.920526680779794 2.026491106406735 2 19.020526680779795 2.026491106406735 2 22.100000000000001 2 2 25.0 1 2.0 27.920526680779794 2.026491106406735 2 31.100000000000001 2 2 34.0 1 2.0 37.0 2 2 40.0 1 2.0 42.920526680779794 2.026491106406735 2 46.020526680779795 2.026491106406735 2 49.020526680779795 2.026491106406735 2 52.100000000000001 2 2 55.0 1 2.0 58.0 1 2.0 60.920526680779794 2.026491106406735 2 64.020526680779795 2.026491106406735 2 67.099999999999994 2 2 70.0 1 2.0 72.920526680779801 2.026491106406735 2 76.099999999999994 2 2 79.0 1 2.0 82.0 2 2 85.0 1 2.0 88.0 2 2 91.0 1 2.0 94.0 2 2 96.931671842700027 1 2.0 99.068328157299973 2.0341640786499875 2 </DataArray>
</Points>
<Cells>
<DataArray Name="connectivity" format="ascii" type="Int32">0</DataArray>
<DataArray Name="offsets" format="ascii" type="Int32">0</DataArray>
<DataArray Name="types" format="ascii" type="UInt8">1</DataArray>
</Cells>
<PointData>
<DataArray Name="Points" NumberOfComponents="3" format="ascii" type="Float32">1 1 2.0 4.0 1 2.0 7.0 1 2.0 10.0 1 2.0 13.0 1 2.0 15.920526680779794 2.026491106406735 2 19.020526680779795 2.026491106406735 2 22.100000000000001 2 2 25.0 1 2.0 27.920526680779794 2.026491106406735 2 31.100000000000001 2 2 34.0 1 2.0 37.0 2 2 40.0 1 2.0 42.920526680779794 2.026491106406735 2 46.020526680779795 2.026491106406735 2 49.020526680779795 2.026491106406735 2 52.100000000000001 2 2 55.0 1 2.0 58.0 1 2.0 60.920526680779794 2.026491106406735 2 64.020526680779795 2.026491106406735 2 67.099999999999994 2 2 70.0 1 2.0 72.920526680779801 2.026491106406735 2 76.099999999999994 2 2 79.0 1 2.0 82.0 2 2 85.0 1 2.0 88.0 2 2 91.0 1 2.0 94.0 2 2 96.931671842700027 1 2.0 99.068328157299973 2.0341640786499875 2 </DataArray>
<DataArray Name="forces" NumberOfComponents="3" format="ascii" type="Float32">0.0 0.0 0.0 0.0 0.0 0.0 0.0 0.0 0.0 0.0 0.0 0.0 0.0 0.0 0.0 -0.79473319220205496 0.26491106406735165 0.0 0.20526680779794504 0.26491106406735165 0.0 1.0 0.0 0.0 0.0 0.0 0.0 -0.79473319220205496 0.26491106406735165 0.0 1.0 0.0 0.0 0.0 0.0 0.0 0.0 0.0 0.0 0.0 0.0 0.0 -0.79473319220205496 0.26491106406735165 0.0 0.20526680779794504 0.26491106406735165 0.0 0.20526680779794504 0.26491106406735165 0.0 1.0 0.0 0.0 0.0 0.0 0.0 0.0 0.0 0.0 -0.79473319220205496 0.26491106406735165 0.0 0.20526680779794504 0.26491106406735165 0.0 1.0 0.0 0.0 0.0 0.0 0.0 -0.79473319220205496 0.26491106406735165 0.0 1.0 0.0 0.0 0.0 0.0 0.0 0.0 0.0 0.0 0.0 0.0 0.0 0.0 0.0 0.0 0.0 0.0 0.0 0.0 0.0 0.0 -0.68328157299974757 -0.34164078649987378 0.0 0.68328157299974757 0.34164078649987378 0.0 </DataArray>
<DataArray Name="radii" format="ascii" type="Float32">1 1 1 1 1 2 2 2 1 2 2 1 2 1 2 2 2 2 1 1 2 2 2 1 2 2 1 2 1 2 1 2 1 2 </DataArray>
</PointData>
<CellData/>
</Piece>
</UnstructuredGrid>
</VTKFile>
