<?xml version="1.0" ?>
<VTKFile byte_order="LittleEndian" type="UnstructuredGrid" version="0.1">
<UnstructuredGrid>
<Piece NumberOfCells="0" NumberOfPoints="50">
<Points>
<DataArray NumberOfComponents="3" format="ascii" type="Float32">0.88868049433938012 1 2.0377394050309814 3.0179196241086159 3.9723779569388213 2.5014964250033724 4.7997260391112251 1 1.9242657092842008 6.1228008335742592 3.7531785292648236 2.6354153870225678 10.898502676765602 1.7465852288032999 2.3695903503208831 13.848796189980495 1.8171108039561314 2.3199239938319391 17.621996194497747 2.7998472542315223 2.3712485176147622 21.730370456389547 2.5932096325904741 2.5308112617147849 23.507356040193887 1 1.779919488923891 25.747235436064731 2.0029300136956198 2.5339176387123707 29.865916686502239 1.857736455817927 2.4250047057528046 32.139535144567446 1 1.9277304187271189 34.695336598498642 1.880614446862592 2.3489117581300802 38.292880214652719 2.8749552879397986 2.547183661378992 41.130829452506795 1 1.9892967101364547 44.637527786098524 2.3623516139348446 2.4415466906135541 47.0 1 2.0 50.0 1 2.0 53.0 1 2.0 56.0 1 2.0 59.0 1 2.0 62.0 1 2.0 64.561641949809172 1 1.9707521698940831 67.531533356188234 2.2825106531963884 2.3586332928537774 71.028140563966744 1.7139341285141791 2.3011462875494679 75.565888609423922 2.2770667305247434 2.5027630822377267 77.438360010653057 1 1.9679108503711926 80.0 1 2.0 83.0 1 2.0 86.0 1 2.0 88.681154522035129 2.7083294743362543 2.3708168871127748 92.0 1 2.0 94.602384661747621 1.7928039172355406 2.3141144930778088 98.0 1 2.0 2.6913948514558816 1.9964520148736253 1.6854522711947335 7.3196072363987472 2.2491739810460611 1.634507804273454 9.3053417620459431 3.1060401816031482 1.8380468265117225 14.862198243176309 3.4705796672650218 1.8968999453158968 18.915920141551954 1.1435621422578339 1.7746743386318866 21.680065355106201 4.6444494053549237 1.8167156397123003 25.870198809667887 4.0321814743613755 1.7696379636455166 29.259080645447082 3.6449535174733798 1.8133309247412621 34.348231002220032 3.7792374346110913 1.8857526164882146 38.994722255574317 1.2449484367598604 1.6626863048131399 42.834600948533179 1.8971875998360701 1.7584533093864452 65.648573194435997 2.6877763650622253 1.8795704989435098 70.921819768983767 3.6549637887504525 1.9002075646775969 73.765448163895456 2.5874863444399452 1.7307668070029367 89.692163928328995 1.089703023285838 1.8291831128872247 96.094486222095796 3.3125588142799693 1.8858855069221907 </DataArray>
</Points>
<Cells>
<DataArray Name="connectivity" format="ascii" type="Int32">0</DataArray>
<DataArray Name="offsets" format="ascii" type="Int32">0</DataArray>
<DataArray Name="types" format="ascii" type="UInt8">1</DataArray>
</Cells>
<PointData>
<DataArray Name="Points" NumberOfComponents="3" format="ascii" type="Float32">0.88868049433938012 1 2.0377394050309814 3.0179196241086159 3.9723779569388213 2.5014964250033724 4.7997260391112251 1 1.9242657092842008 6.1228008335742592 3.7531785292648236 2.6354153870225678 10.898502676765602 1.7465852288032999 2.3695903503208831 13.848796189980495 1.8171108039561314 2.3199239938319391 17.621996194497747 2.7998472542315223 2.3712485176147622 21.730370456389547 2.5932096325904741 2.5308112617147849 23.507356040193887 1 1.779919488923891 25.747235436064731 2.0029300136956198 2.5339176387123707 29.865916686502239 1.857736455817927 2.4250047057528046 32.139535144567446 1 1.9277304187271189 34.695336598498642 1.880614446862592 2.3489117581300802 38.292880214652719 2.8749552879397986 2.547183661378992 41.130829452506795 1 1.9892967101364547 44.637527786098524 2.3623516139348446 2.4415466906135541 47.0 1 2.0 50.0 1 2.0 53.0 1 2.0 56.0 1 2.0 59.0 1 2.0 62.0 1 2.0 64.561641949809172 1 1.9707521698940831 67.531533356188234 2.2825106531963884 2.3586332928537774 71.028140563966744 1.7139341285141791 2.3011462875494679 75.565888609423922 2.2770667305247434 2.5027630822377267 77.438360010653057 1 1.9679108503711926 80.0 1 2.0 83.0 1 2.0 86.0 1 2.0 88.681154522035129 2.7083294743362543 2.3708168871127748 92.0 1 2.0 94.602384661747621 1.7928039172355406 2.3141144930778088 98.0 1 2.0 2.6913948514558816 1.9964520148736253 1.6854522711947335 7.3196072363987472 2.2491739810460611 1.634507804273454 9.3053417620459431 3.1060401816031482 1.8380468265117225 14.862198243176309 3.4705796672650218 1.8968999453158968 18.915920141551954 1.1435621422578339 1.7746743386318866 21.680065355106201 4.6444494053549237 1.8167156397123003 25.870198809667887 4.0321814743613755 1.7696379636455166 29.259080645447082 3.6449535174733798 1.8133309247412621 34.348231002220032 3.7792374346110913 1.8857526164882146 38.994722255574317 1.2449484367598604 1.6626863048131399 42.834600948533179 1.8971875998360701 1.7584533093864452 65.648573194435997 2.6877763650622253 1.8795704989435098 70.921819768983767 3.6549637887504525 1.9002075646775969 73.765448163895456 2.5874863444399452 1.7307668070029367 89.692163928328995 1.089703023285838 1.8291831128872247 96.094486222095796 3.3125588142799693 1.8858855069221907 </DataArray>
<DataArray Name="forces" NumberOfComponents="3" format="ascii" type="Float32">-0.074093632419645658 -0.045668570390382718 0.013548848464486497 0.007534198850532285 0.035181376953992413 0.013691791706889963 0.0 0.0 0.0 0.0 0.0 0.0 0.0 0.0 0.0 0.0 0.0 0.0 0.0 0.0 0.0 0.0 0.0 0.0 0.0 0.0 0.0 0.0 0.0 0.0 0.0 0.0 0.0 0.0 0.0 0.0 0.0 0.0 0.0 0.0 0.0 0.0 0.0 0.0 0.0 0.0 0.0 0.0 0.0 0.0 0.0 0.0 0.0 0.0 0.0 0.0 0.0 0.0 0.0 0.0 0.0 0.0 0.0 0.0 0.0 0.0 0.0 0.0 0.0 0.0 0.0 0.0 0.0 0.0 0.0 0.0 0.0 0.0 0.0 0.0 0.0 0.0 0.0 0.0 0.0 0.0 0.0 0.0 0.0 0.0 0.0 0.0 0.0 0.0 0.0 0.0 0.0 0.0 0.0 0.0 0.0 0.0 0.066559433569113369 0.010487193436390305 -0.027240640171376458 0.0 0.0 0.0 0.0 0.0 0.0 0.0 0.0 0.0 0.02925223692717234 -0.037444275318271665 -0.013486982189308924 0.0 0.0 0.0 0.0 0.0 0.0 0.0 0.0 0.0 0.0 0.0 0.0 0.0 0.0 0.0 0.0 0.0 0.0 0.0 0.0 0.0 0.0 0.0 0.0 0.0 0.0 0.0 0.0 0.0 0.0 0.0 0.0 0.0 </DataArray>
<DataArray Name="radii" format="ascii" type="Float32">1 1.2 1 1.2 1.2 1.2 1.2 1.2 1 1.2 1.2 1 1.2 1.2 1 1.2 1 1 1 1 1 1 1 1.2 1.2 1.2 1 1 1 1 1.2 1 1.2 1 1.2 1.2 1.2 1 1.2 1.2 1.2 1 1 1 1 1 1 1 1 1.2 </DataArray>
</PointData>
<CellData/>
</Piece>
</UnstructuredGrid>
</VTKFile>
