<?xml version="1.0" ?>
<VTKFile byte_order="LittleEndian" type="UnstructuredGrid" version="0.1">
<UnstructuredGrid>
<Piece NumberOfCells="0" NumberOfPoints="17">
<Points>
<DataArray NumberOfComponents="3" format="ascii" type="Float32">2.1538714446106551 1.886875043847231 2.0 3.9787501199227697 1.8539617086920199 2.0 5.8337576121951127 1 2.0 8.5113890017119793 1.8442971504908523 2.0 1.8257196320076503 1.8406507457128787 2.0 4.977229973386379 1 2.0 6.7954656667008795 1 2.0 10.0 1.8232978938345137 2.0 3.7390937050917659 3.938137074772742 2.0 5.5354347652082421 2.7672643295748243 2.0 7.2443695251385654 2.3595455684675524 2.0 1.9145857286088459 4.1756668087081374 2.0 4.6979590979216983 5.4264724172500047 2.0 10.0 3.3703863844188415 2.0 7.2107112836759795 5.2226073241542696 2.0 1.9746159964050114 6.668031175678899 2.0 10.0 5.9108558647098626 2.0 </DataArray>
</Points>
<Cells>
<DataArray Name="connectivity" format="ascii" type="Int32">0</DataArray>
<DataArray Name="offsets" format="ascii" type="Int32">0</DataArray>
<DataArray Name="types" format="ascii" type="UInt8">1</DataArray>
</Cells>
<PointData>
<DataArray Name="Points" NumberOfComponents="3" format="ascii" type="Float32">2.1538714446106551 1.886875043847231 2.0 3.9787501199227697 1.8539617086920199 2.0 5.8337576121951127 1 2.0 8.5113890017119793 1.8442971504908523 2.0 1.8257196320076503 1.8406507457128787 2.0 4.977229973386379 1 2.0 6.7954656667008795 1 2.0 10.0 1.8232978938345137 2.0 3.7390937050917659 3.938137074772742 2.0 5.5354347652082421 2.7672643295748243 2.0 7.2443695251385654 2.3595455684675524 2.0 1.9145857286088459 4.1756668087081374 2.0 4.6979590979216983 5.4264724172500047 2.0 10.0 3.3703863844188415 2.0 7.2107112836759795 5.2226073241542696 2.0 1.9746159964050114 6.668031175678899 2.0 10.0 5.9108558647098626 2.0 </DataArray>
<DataArray Name="forces" NumberOfComponents="3" format="ascii" type="Float32">0.47504927737287594 -0.46593602829556158 0.0 0.097252551904207535 -1.6836205867884189 0.0 0.21015544292988919 -2.339024947649663 0.0 0.78198141532612997 -2.0411772801687991 0.0 -6.4477972819213756 -2.1760821985313452 0.0 -0.86439251073676737 -2.3463213638193965 0.0 0.37850981636453102 -2.6099708940803672 0.0 3.6996693065305113 -2.8180803332829205 0.0 0.21673209633017343 0.98524652376042243 0.0 0.09485521142184894 2.3322117925030845 0.0 -0.42518533197233493 1.4138499063342289 0.0 -3.160045582055194 2.6942053429911788 0.0 0.75596481499984436 2.7997216263537061 0.0 2.9803929813336909 2.4851195741910694 0.0 0.21696315890628326 2.4517393347905041 0.0 -0.93912418977238732 1.9307056740846795 0.0 1.0826455137711954 1.7494783523633761 0.0 </DataArray>
<DataArray Name="radii" format="ascii" type="Float32">1.9999999999999998 1.9999999999999998 1 1.9999999999999998 1.9999999999999998 1 1 1.9999999999999998 1 1.9999999999999998 1.9999999999999998 1.9999999999999998 1.9999999999999998 1.9999999999999998 1.9999999999999998 1.9999999999999998 1.9999999999999998 </DataArray>
</PointData>
<CellData/>
</Piece>
</UnstructuredGrid>
</VTKFile>
