<?xml version="1.0" ?>
<VTKFile byte_order="LittleEndian" type="UnstructuredGrid" version="0.1">
<UnstructuredGrid>
<Piece NumberOfCells="0" NumberOfPoints="52">
<Points>
<DataArray NumberOfComponents="3" format="ascii" type="Float32">0.99803078979227111 2.4014838945382961 2.0 4.5391532961268197 1.4805652204160287 2.0 7.2759690967362483 1 2.0 8.9666083146891928 1.9566880635358199 2.0 12.470379692736902 1.155471715023435 2.0 16.230096900573653 1 2.0 19.0 1.0 2.0 22.0 1.0 2.0 25.482926785227992 1.267275016118403 2.0 28.0 1.0 2.0 30.720045093369041 1 2.0 34.865375029450803 3.29149520594199 2.0 36.798369989652713 1 2.0 39.134195833792454 3.8253909001678714 2.0 43.048708591607443 1.186614097249145 2.0 46.504966377411783 2.3552453121448971 2.0 48.301033411436734 1.4613812758127085 2.0 53.839770710002085 2.3405332190455153 2.0 55.11715926071961 1 2.0 58.0 1.0 2.0 60.250901270201581 1.1981817487790423 2.0 63.98847138697316 1 2.0 66.951042194753086 2.7501504441537103 2.0 69.935517293839609 2.4374299253031966 2.0 73.324365876062046 1.0 2.0 75.286826498521322 2.117879570683689 2.0 79.081569491533656 1 2.0 82.0 1.0 2.0 84.994949431776988 1 2.0 88.720718988325359 1.9965231576292979 2.0 91.0 1.0 2.0 93.14532654167725 1.4776015332157759 2.0 96.887486302849254 1 2.0 99.798320160781856 1.2315177921938132 2.0 2.7029162252774159 1.4693003552561645 2.0 6.3691607183166248 3.5419295404993827 2.0 10.897283833958154 2.2834443958117872 2.0 14.395737683546251 3.0936724090512531 2.0 23.974978099315173 3.5552236459673687 2.0 33.060205664341851 1.9701241287644582 2.0 39.488645349290962 1.8676989145964327 2.0 42.439792227979659 3.9097703723957826 2.0 44.968783011259127 1.1098970110478208 2.0 49.61234263151826 3.949104833194649 2.0 51.649396527924445 1.9077357878307517 2.0 62.075418421588182 3.2466661471117084 2.0 65.977477877095737 1.0 2.0 71.32168513729998 1 2.0 77.259443384424955 1.8148343878805162 2.0 86.721231780474298 2.0091455704949213 2.0 95.121744103010897 3.1680481734244723 2.0 98.765383075424324 3.7264266195915381 2.0 </DataArray>
</Points>
<Cells>
<DataArray Name="connectivity" format="ascii" type="Int32">0</DataArray>
<DataArray Name="offsets" format="ascii" type="Int32">0</DataArray>
<DataArray Name="types" format="ascii" type="UInt8">1</DataArray>
</Cells>
<PointData>
<DataArray Name="Points" NumberOfComponents="3" format="ascii" type="Float32">0.99803078979227111 2.4014838945382961 2.0 4.5391532961268197 1.4805652204160287 2.0 7.2759690967362483 1 2.0 8.9666083146891928 1.9566880635358199 2.0 12.470379692736902 1.155471715023435 2.0 16.230096900573653 1 2.0 19.0 1.0 2.0 22.0 1.0 2.0 25.482926785227992 1.267275016118403 2.0 28.0 1.0 2.0 30.720045093369041 1 2.0 34.865375029450803 3.29149520594199 2.0 36.798369989652713 1 2.0 39.134195833792454 3.8253909001678714 2.0 43.048708591607443 1.186614097249145 2.0 46.504966377411783 2.3552453121448971 2.0 48.301033411436734 1.4613812758127085 2.0 53.839770710002085 2.3405332190455153 2.0 55.11715926071961 1 2.0 58.0 1.0 2.0 60.250901270201581 1.1981817487790423 2.0 63.98847138697316 1 2.0 66.951042194753086 2.7501504441537103 2.0 69.935517293839609 2.4374299253031966 2.0 73.324365876062046 1.0 2.0 75.286826498521322 2.117879570683689 2.0 79.081569491533656 1 2.0 82.0 1.0 2.0 84.994949431776988 1 2.0 88.720718988325359 1.9965231576292979 2.0 91.0 1.0 2.0 93.14532654167725 1.4776015332157759 2.0 96.887486302849254 1 2.0 99.798320160781856 1.2315177921938132 2.0 2.7029162252774159 1.4693003552561645 2.0 6.3691607183166248 3.5419295404993827 2.0 10.897283833958154 2.2834443958117872 2.0 14.395737683546251 3.0936724090512531 2.0 23.974978099315173 3.5552236459673687 2.0 33.060205664341851 1.9701241287644582 2.0 39.488645349290962 1.8676989145964327 2.0 42.439792227979659 3.9097703723957826 2.0 44.968783011259127 1.1098970110478208 2.0 49.61234263151826 3.949104833194649 2.0 51.649396527924445 1.9077357878307517 2.0 62.075418421588182 3.2466661471117084 2.0 65.977477877095737 1.0 2.0 71.32168513729998 1 2.0 77.259443384424955 1.8148343878805162 2.0 86.721231780474298 2.0091455704949213 2.0 95.121744103010897 3.1680481734244723 2.0 98.765383075424324 3.7264266195915381 2.0 </DataArray>
<DataArray Name="forces" NumberOfComponents="3" format="ascii" type="Float32">-0.046554658846205479 0.025218285907537739 0.0 -0.031929461441051049 -0.22050673612772995 0.0 0.072663340760979439 -0.35258027037280726 0.0 0.0066920049060048628 0.019408631811834012 0.0 -0.17649630063630428 -0.26905371936350508 0.0 0.16641209360248307 -0.18743680583140629 0.0 0.0 0.0 0.0 0.0 0.0 0.0 0.17451623392545165 -0.2647863166871865 0.0 0.0 0.0 0.0 -0.4438785514810526 -0.18491364892411929 0.0 0.69042376408556894 0.51312785027913954 0.0 -0.16940574552695406 -0.055128770321315919 0.0 -0.20377130163376839 1.0963936038294573 0.0 -0.020559190311741263 -0.26116716481441193 0.0 0.015855773827972503 0.012785565724677489 0.0 -0.13336722636973961 -0.23087977557665143 0.0 0.72333599809135929 0.24141476936150941 0.0 0.087957505961924393 -0.086897817202312225 0.0 0.0 0.0 0.0 -0.20949676971196945 -0.23428500786793804 0.0 0.030311358651979148 -0.045433998108088874 0.0 0.0 0.0 0.0 -0.0024730039610260986 0.0025648719641715402 0.0 0.0 0.0 0.0 -0.0046669739942285307 0.00071721336521613074 0.0 0.0039037058236457423 -0.00174576628727123 0.0 0.0 0.0 0.0 -0.00036065102768537171 -0.00021082640703009616 0.0 0.00053763522600634044 -3.3888195779099716e-06 0.0 0.0 0.0 0.0 -0.35036864809190654 -0.29075963586342324 0.0 0.1592257148872413 -0.19505414570614443 0.0 0.14010926520045133 -0.32800294040693828 0.0 -0.12540902769655732 -0.027915376263648206 0.0 0.084941007969585675 0.54973036874696668 0.0 -0.017054476723612946 0.045882158808863205 0.0 0.066735478104678031 0.41725346268389518 0.0 -0.17451623392545165 0.2647863166871865 0.0 -0.28087087288722834 -0.3306359653740798 0.0 -0.092655800140994615 -1.4641747766139672 0.0 0.39814296915463437 0.56167899223476681 0.0 0.069548897752210612 -0.017197191196048005 0.0 -0.75205032904321423 1.1066989905242972 0.0 0.11861490711223266 -1.0210871046922672 0.0 0.17011083116623416 0.27971900597602695 0.0 0.0090745798937561517 0.0 0.0 0.0024730039610260986 -0.0025648719641715402 0.0 0.00076326817058278845 0.0010285529220550992 0.0 -0.00017698419832096874 0.00021421522660800612 0.0 -0.14903292638990745 0.43278699523774877 0.0 0.20006659439412136 0.38102972673875712 0.0 </DataArray>
<DataArray Name="radii" format="ascii" type="Float32">1 1 1 1 1 1 1 1 1 1 1 1 1 1 1 1 1 1 1 1 1 1 1 1 1 1 1 1 1 1 1 1 1 1 1 2 1 2 2 2 2 2 1 2 2 2 1 1 1 1 2 2 </DataArray>
</PointData>
<CellData/>
</Piece>
</UnstructuredGrid>
</VTKFile>
