<?xml version="1.0" ?>
<VTKFile byte_order="LittleEndian" type="UnstructuredGrid" version="0.1">
<UnstructuredGrid>
<Piece NumberOfCells="0" NumberOfPoints="34">
<Points>
<DataArray NumberOfComponents="3" format="ascii" type="Float32">1.9614795075962301 2.128103866762264 2.0 4.2562077335245281 0.98073975379811507 2.0 7.0 1.0 2.0 9.9881281484120255 0.99754891594155237 2.0 12.699476254490824 2.0043156244035836 2.0 16.300523745509178 2.0043156244035831 2.0 19.011871851587976 0.99754891594155248 2.0 22.0 2.0 2.0 25.0 1.0 2.0 27.982498045615817 0.99647358633408301 2.0 30.641717213921659 2.0065019829531865 2.0 33.999993487499466 1.9998987138057196 2.0 37.357838006821822 2.0066778396516871 2.0 40.005367489287757 0.99366226341871966 2.0 42.700177828917965 2.004585852096763 2.0 46.300536076347527 2.0043150292994079 2.0 49.011871851587969 0.99754891594155226 2.0 52.0 2.0 2.0 55.0 1.0 2.0 58.0 2.0 2.0 61.0 1.0 2.0 64.0 2.0 2.0 67.0 1.0 2.0 70.0 2.0 2.0 73.0 1.0 2.0 76.0 1.0 2.0 79.0 1.0 2.0 81.982084122157445 0.99637286558258764 2.0 84.634822622611452 2.0066668562498031 2.0 87.935893543807268 1.9999448326600859 2.0 90.987704913882013 2.0 2.0 93.955069308567175 2.0 2.0 96.804425488974658 2.0 2.0 99.69999999999996 2.0 2.0 </DataArray>
</Points>
<Cells>
<DataArray Name="connectivity" format="ascii" type="Int32">0</DataArray>
<DataArray Name="offsets" format="ascii" type="Int32">0</DataArray>
<DataArray Name="types" format="ascii" type="UInt8">1</DataArray>
</Cells>
<PointData>
<DataArray Name="Points" NumberOfComponents="3" format="ascii" type="Float32">1.9614795075962301 2.128103866762264 2.0 4.2562077335245281 0.98073975379811507 2.0 7.0 1.0 2.0 9.9881281484120255 0.99754891594155237 2.0 12.699476254490824 2.0043156244035836 2.0 16.300523745509178 2.0043156244035831 2.0 19.011871851587976 0.99754891594155248 2.0 22.0 2.0 2.0 25.0 1.0 2.0 27.982498045615817 0.99647358633408301 2.0 30.641717213921659 2.0065019829531865 2.0 33.999993487499466 1.9998987138057196 2.0 37.357838006821822 2.0066778396516871 2.0 40.005367489287757 0.99366226341871966 2.0 42.700177828917965 2.004585852096763 2.0 46.300536076347527 2.0043150292994079 2.0 49.011871851587969 0.99754891594155226 2.0 52.0 2.0 2.0 55.0 1.0 2.0 58.0 2.0 2.0 61.0 1.0 2.0 64.0 2.0 2.0 67.0 1.0 2.0 70.0 2.0 2.0 73.0 1.0 2.0 76.0 1.0 2.0 79.0 1.0 2.0 81.982084122157445 0.99637286558258764 2.0 84.634822622611452 2.0066668562498031 2.0 87.935893543807268 1.9999448326600859 2.0 90.987704913882013 2.0 2.0 93.955069308567175 2.0 2.0 96.804425488974658 2.0 2.0 99.69999999999996 2.0 2.0 </DataArray>
<DataArray Name="forces" NumberOfComponents="3" format="ascii" type="Float32">-0.46559433187898974 0.23279716593949487 0.0 0.46559433187898974 -0.23279716593949487 0.0 0.0 0.0 0.0 -0.080911518559248594 -0.029626071043174589 0.0 -0.38110103429019726 0.029626071043174648 0.0 0.38110103429019893 0.029626071043173888 0.0 0.080911518559246942 -0.029626071043173947 0.0 0.0 0.0 0.0 0.0 0.0 0.0 -0.11463203292683807 -0.042623500174958757 0.0 -0.57462462711026541 0.043232488592987409 0.0 -7.8716110415544271e-05 -0.0012242387106637391 0.0 0.57020043472171356 0.04499943355367611 0.0 0.0313959674942174 -0.076603751537128881 0.0 -0.37442262084554073 0.032226761256079997 0.0 0.3812500762178756 0.029618878063184181 0.0 0.080911518559253159 -0.029626071043176317 0.0 0.0 0.0 0.0 0.0 0.0 0.0 0.0 0.0 0.0 0.0 0.0 0.0 0.0 0.0 0.0 0.0 0.0 0.0 0.0 0.0 0.0 0.0 0.0 0.0 0.0 0.0 0.0 0.0 0.0 0.0 -0.11774242951137766 -0.043840904420659063 0.0 -0.61272909124237007 0.044507707962513396 0.0 -0.23145779365115038 -0.00066680354185433299 0.0 -0.065375160469770321 0.0 0.0 -0.12981213831082528 0.0 0.0 -0.051575962700226796 0.0 0.0 1.2086925758857205 0.0 0.0 </DataArray>
<DataArray Name="radii" format="ascii" type="Float32">2 1 1 1 2 2 1 2 1 1 2 2 2 1 2 2 1 2 1 2 1 2 1 2 1 1 1 1 2 2 2 2 2 2 </DataArray>
</PointData>
<CellData/>
</Piece>
</UnstructuredGrid>
</VTKFile>
