<?xml version="1.0" ?>
<VTKFile byte_order="LittleEndian" type="UnstructuredGrid" version="0.1">
<UnstructuredGrid>
<Piece NumberOfCells="0" NumberOfPoints="34">
<Points>
<DataArray NumberOfComponents="3" format="ascii" type="Float32">1 1 2.0 4.0 1 2.0 7.0 1 2.0 10.0 1 2.0 13.0 1 2.0 15.82274084371562 2.026491106406735 2 19.01831251784397 2.0273513543667154 2 22.199999999999999 2 2 25.0 1 2.0 27.831390778255642 2.0272337793092419 2 31.189135902524153 2 2 34.0 1 2.0 37.0 2 2 40.0 1 2.0 42.822740843715621 2.026491106406735 2 46.009661587772662 2.026491106406735 2 49.0291776108511 2.0273513543667154 2 52.200000000000003 2 2 55.0 1 2.0 58.0 1 2.0 60.822740843715621 2.026491106406735 2 64.018312517843967 2.0273513543667154 2 67.199999999999989 2 2 70.0 1 2.0 72.831390778255653 2.0272337793092419 2 76.189135902524143 2 2 79.0 1 2.0 82.0 2 2 85.0 1 2.0 88.0 2 2 91.0 1 2.0 94.0 2 2 96.87042817076032 1 2.0 99.12957182923968 2.0638066585688519 2 </DataArray>
</Points>
<Cells>
<DataArray Name="connectivity" format="ascii" type="Int32">0</DataArray>
<DataArray Name="offsets" format="ascii" type="Int32">0</DataArray>
<DataArray Name="types" format="ascii" type="UInt8">1</DataArray>
</Cells>
<PointData>
<DataArray Name="Points" NumberOfComponents="3" format="ascii" type="Float32">1 1 2.0 4.0 1 2.0 7.0 1 2.0 10.0 1 2.0 13.0 1 2.0 15.82274084371562 2.026491106406735 2 19.01831251784397 2.0273513543667154 2 22.199999999999999 2 2 25.0 1 2.0 27.831390778255642 2.0272337793092419 2 31.189135902524153 2 2 34.0 1 2.0 37.0 2 2 40.0 1 2.0 42.822740843715621 2.026491106406735 2 46.009661587772662 2.026491106406735 2 49.0291776108511 2.0273513543667154 2 52.200000000000003 2 2 55.0 1 2.0 58.0 1 2.0 60.822740843715621 2.026491106406735 2 64.018312517843967 2.0273513543667154 2 67.199999999999989 2 2 70.0 1 2.0 72.831390778255653 2.0272337793092419 2 76.189135902524143 2 2 79.0 1 2.0 82.0 2 2 85.0 1 2.0 88.0 2 2 91.0 1 2.0 94.0 2 2 96.87042817076032 1 2.0 99.12957182923968 2.0638066585688519 2 </DataArray>
<DataArray Name="forces" NumberOfComponents="3" format="ascii" type="Float32">0.0 0.0 0.0 0.0 0.0 0.0 0.0 0.0 0.0 0.0 0.0 0.0 0.0 0.0 0.0 -0.89999999999999858 0.0 0.0 -0.020378683683348386 0.0079175388504811942 0.0 0.92037868368334697 -0.0079175388504811942 0.0 0.0 0.0 0.0 -0.8203878463410611 0.0068354030841634578 0.0 0.8203878463410611 -0.0068354030841634578 0.0 0.0 0.0 0.0 0.0 0.0 0.0 0.0 0.0 0.0 -0.89999999999999858 0.0 0.0 -0.10000000000000142 0.0 0.0 0.079621316316653035 0.0079175388504811942 0.0 0.92037868368334697 -0.0079175388504811942 0.0 0.0 0.0 0.0 0.0 0.0 0.0 -0.89999999999999858 0.0 0.0 -0.020378683683355492 0.007917538850481274 0.0 0.92037868368335407 -0.007917538850481274 0.0 0.0 0.0 0.0 -0.82038784634107598 0.0068354030841636104 0.0 0.82038784634107598 -0.0068354030841636104 0.0 0.0 0.0 0.0 0.0 0.0 0.0 0.0 0.0 0.0 0.0 0.0 0.0 0.0 0.0 0.0 0.0 0.0 0.0 -0.56367370163808372 -0.27282398686703202 0.0 0.56367370163808372 0.27282398686703202 0.0 </DataArray>
<DataArray Name="radii" format="ascii" type="Float32">1 1 1 1 1 2 2 2 1 2 2 1 2 1 2 2 2 2 1 1 2 2 2 1 2 2 1 2 1 2 1 2 1 2 </DataArray>
</PointData>
<CellData/>
</Piece>
</UnstructuredGrid>
</VTKFile>
