<?xml version="1.0" ?>
<VTKFile byte_order="LittleEndian" type="UnstructuredGrid" version="0.1">
<UnstructuredGrid>
<Piece NumberOfCells="0" NumberOfPoints="112">
<Points>
<DataArray NumberOfComponents="3" format="ascii" type="Float32">0.9704064992779704 1 2.0 4.1020992712293767 3.7401065417719548 2.0 6.9066910649152726 1 2.0 11.903892462459831 4.5493584387484995 2.0 13.100808184273326 1 2.0 16.0 1.0 2.0 18.723815206362005 1 2.0 21.270798002094931 1.9347662111153177 2.0 23.842404945203093 3.3014043568257478 2.0 27.93708692608827 1 2.0 30.411046035988694 4.2107258403378269 2.0 33.73104179876082 1 2.0 35.70528264232037 1.868992025067566 2.0 39.385346930213224 3.0642653666423363 2.0 43.558383297830197 1 2.0 45.255822562740192 1.9548161529164394 2.0 49.0 1.0 2.0 52.422903737380643 3.3995679162218835 2.0 55.11128927496128 1 2.0 56.834670637243043 1.9383338941972212 2.0 61.531054354914936 1 2.0 63.496561632355856 2.0440122075127474 2.0 68.200114643737294 1 2.0 70.0 1.0 2.0 73.0 1.0 2.0 76.0 1.0 2.0 78.474291069854502 1 2.0 81.773631490776239 2.4953123954540311 2.0 84.433413970608086 1 2.0 86.417491902565644 1.9010427661765199 2.0 90.461301025222753 1.8243908409649587 2.0 94.0535299012557 5.882516117422 2.0 97.424533836000464 3.9375217827019116 2.0 103.24188794125791 3.1648873416516778 2.0 6.2473648008934726 2.4194611652360694 2.0 8.570835162980579 1 2.0 21.795939005595205 4.2571346597510091 2.0 26.011490425815133 4.2828434546305694 2.0 32.177796137165643 1 2.0 36.61927964652731 4.90177447411385 2.0 43.860747369506477 4.1458259562382223 2.0 47.684427481612843 2.7434258374339278 2.0 51.227354345631241 1 2.0 60.127201386346634 2.833373752252303 2.0 61.97571003729977 2.8386678849454281 2.0 83.364054279460817 4.9936894849866018 2.0 89.355444042024089 5.8847620078908474 2.0 90.849283500793774 4.5275185068354347 2.0 92.64398542961159 3.6031204392270801 2.0 95.777743898836221 2.1242535545859504 2.0 100.52007782289741 1 2.0 2.1593472211809552 1.3393120418625508 2.0 10.889589478456061 1.9064612039462163 2.0 22.964011913478139 1 2.0 25.982985443610747 1.9156050978791046 2.0 29.392143905480566 1.9176650479140529 2.0 33.261073616098521 2.9487427006043356 2.0 38.655740158349886 1.8584343288862042 2.0 46.000741543917826 4.0321072144227204 2.0 50.518000927189192 3.3553319472325045 2.0 55.864213938261933 3.8999839980817916 2.0 66.062524643093425 3.9970313591663866 2.0 79.96787146774065 1.4814607391950738 2.0 88.044953057687209 1.8564493108997899 2.0 89.913493296787607 3.4565157059757783 2.0 93.910298778138355 2.4299516127121965 2.0 97.981542273543482 1.9358909405663893 2.0 100.75658415637065 3.8605520559795714 2.0 38.168415550072979 5.537913850259506 2.0 42.058513095828317 1.8500641094198225 2.0 59.741300331713639 1 2.0 79.685894103013837 3.8963166622512806 2.0 86.306049607867664 3.8252817903500711 2.0 93.667594878407783 1 2.0 96.841601728772446 1 2.0 3.9240436401320435 1.9007439967434852 2.0 9.38961354716856 4.441241868743063 2.0 19.317138865031193 3.0684417014249359 2.0 24.423375396911645 1 2.0 31.309837498190355 5.9818695271414501 2.0 37.112363795954366 1 2.0 40.93882417831697 4.6124137386595532 2.0 46.697021582220124 1.0263397022421163 2.0 53.87185960153522 1.9715408831358245 2.0 58.060908073594177 2.8017354836830286 2.0 64.994082849814276 1.0142656269324455 2.0 82.732967133305749 1.8875839883977157 2.0 84.87149445164853 2.4264801775769413 2.0 91.384370877194115 2.8195261954550435 2.0 92.059523915011255 5.8151112050536167 2.0 96.642018170984528 5.6810246828289355 2.0 101.6117745834656 1.6717208839919167 2.0 35.537182095711614 4.0904462918568933 2.0 42.183141960898226 3.087117824129979 2.0 58.640511263280032 4.2743997181226385 2.0 85.187480274112431 5.7231050649314934 2.0 87.702623586526784 4.8502441959850424 2.0 92.330460361910241 1.0564081603066222 2.0 95.234929705395587 1 2.0 9.8040733566785363 3.0406574009069138 2.0 27.617221358442364 3.2306553043271617 2.0 31.072829004366582 1.939890650287043 2.0 34.777076653984317 3.3112514040596306 2.0 37.290035688409759 2.8967602441415607 2.0 66.885024340357148 1.9624056632013795 2.0 88.820737465305072 2.9508434373012391 2.0 95.080250095294232 3.9500831422467519 2.0 99.448801535835997 1.9436704597738688 2.0 99.161366540200547 4.8074385474437786 2.0 39.329375098638721 7.4152950763694196 2.0 40.594638471857863 1.3655098727538766 2.0 81.730935203828977 4.7380632735689687 2.0 </DataArray>
</Points>
<Cells>
<DataArray Name="connectivity" format="ascii" type="Int32">0</DataArray>
<DataArray Name="offsets" format="ascii" type="Int32">0</DataArray>
<DataArray Name="types" format="ascii" type="UInt8">1</DataArray>
</Cells>
<PointData>
<DataArray Name="Points" NumberOfComponents="3" format="ascii" type="Float32">0.9704064992779704 1 2.0 4.1020992712293767 3.7401065417719548 2.0 6.9066910649152726 1 2.0 11.903892462459831 4.5493584387484995 2.0 13.100808184273326 1 2.0 16.0 1.0 2.0 18.723815206362005 1 2.0 21.270798002094931 1.9347662111153177 2.0 23.842404945203093 3.3014043568257478 2.0 27.93708692608827 1 2.0 30.411046035988694 4.2107258403378269 2.0 33.73104179876082 1 2.0 35.70528264232037 1.868992025067566 2.0 39.385346930213224 3.0642653666423363 2.0 43.558383297830197 1 2.0 45.255822562740192 1.9548161529164394 2.0 49.0 1.0 2.0 52.422903737380643 3.3995679162218835 2.0 55.11128927496128 1 2.0 56.834670637243043 1.9383338941972212 2.0 61.531054354914936 1 2.0 63.496561632355856 2.0440122075127474 2.0 68.200114643737294 1 2.0 70.0 1.0 2.0 73.0 1.0 2.0 76.0 1.0 2.0 78.474291069854502 1 2.0 81.773631490776239 2.4953123954540311 2.0 84.433413970608086 1 2.0 86.417491902565644 1.9010427661765199 2.0 90.461301025222753 1.8243908409649587 2.0 94.0535299012557 5.882516117422 2.0 97.424533836000464 3.9375217827019116 2.0 103.24188794125791 3.1648873416516778 2.0 6.2473648008934726 2.4194611652360694 2.0 8.570835162980579 1 2.0 21.795939005595205 4.2571346597510091 2.0 26.011490425815133 4.2828434546305694 2.0 32.177796137165643 1 2.0 36.61927964652731 4.90177447411385 2.0 43.860747369506477 4.1458259562382223 2.0 47.684427481612843 2.7434258374339278 2.0 51.227354345631241 1 2.0 60.127201386346634 2.833373752252303 2.0 61.97571003729977 2.8386678849454281 2.0 83.364054279460817 4.9936894849866018 2.0 89.355444042024089 5.8847620078908474 2.0 90.849283500793774 4.5275185068354347 2.0 92.64398542961159 3.6031204392270801 2.0 95.777743898836221 2.1242535545859504 2.0 100.52007782289741 1 2.0 2.1593472211809552 1.3393120418625508 2.0 10.889589478456061 1.9064612039462163 2.0 22.964011913478139 1 2.0 25.982985443610747 1.9156050978791046 2.0 29.392143905480566 1.9176650479140529 2.0 33.261073616098521 2.9487427006043356 2.0 38.655740158349886 1.8584343288862042 2.0 46.000741543917826 4.0321072144227204 2.0 50.518000927189192 3.3553319472325045 2.0 55.864213938261933 3.8999839980817916 2.0 66.062524643093425 3.9970313591663866 2.0 79.96787146774065 1.4814607391950738 2.0 88.044953057687209 1.8564493108997899 2.0 89.913493296787607 3.4565157059757783 2.0 93.910298778138355 2.4299516127121965 2.0 97.981542273543482 1.9358909405663893 2.0 100.75658415637065 3.8605520559795714 2.0 38.168415550072979 5.537913850259506 2.0 42.058513095828317 1.8500641094198225 2.0 59.741300331713639 1 2.0 79.685894103013837 3.8963166622512806 2.0 86.306049607867664 3.8252817903500711 2.0 93.667594878407783 1 2.0 96.841601728772446 1 2.0 3.9240436401320435 1.9007439967434852 2.0 9.38961354716856 4.441241868743063 2.0 19.317138865031193 3.0684417014249359 2.0 24.423375396911645 1 2.0 31.309837498190355 5.9818695271414501 2.0 37.112363795954366 1 2.0 40.93882417831697 4.6124137386595532 2.0 46.697021582220124 1.0263397022421163 2.0 53.87185960153522 1.9715408831358245 2.0 58.060908073594177 2.8017354836830286 2.0 64.994082849814276 1.0142656269324455 2.0 82.732967133305749 1.8875839883977157 2.0 84.87149445164853 2.4264801775769413 2.0 91.384370877194115 2.8195261954550435 2.0 92.059523915011255 5.8151112050536167 2.0 96.642018170984528 5.6810246828289355 2.0 101.6117745834656 1.6717208839919167 2.0 35.537182095711614 4.0904462918568933 2.0 42.183141960898226 3.087117824129979 2.0 58.640511263280032 4.2743997181226385 2.0 85.187480274112431 5.7231050649314934 2.0 87.702623586526784 4.8502441959850424 2.0 92.330460361910241 1.0564081603066222 2.0 95.234929705395587 1 2.0 9.8040733566785363 3.0406574009069138 2.0 27.617221358442364 3.2306553043271617 2.0 31.072829004366582 1.939890650287043 2.0 34.777076653984317 3.3112514040596306 2.0 37.290035688409759 2.8967602441415607 2.0 66.885024340357148 1.9624056632013795 2.0 88.820737465305072 2.9508434373012391 2.0 95.080250095294232 3.9500831422467519 2.0 99.448801535835997 1.9436704597738688 2.0 99.161366540200547 4.8074385474437786 2.0 39.329375098638721 7.4152950763694196 2.0 40.594638471857863 1.3655098727538766 2.0 81.730935203828977 4.7380632735689687 2.0 </DataArray>
<DataArray Name="forces" NumberOfComponents="3" format="ascii" type="Float32">-0.55210110335172791 -0.17533252398459873 0.0 -0.014441941616231663 1.8656160639377803 0.0 -0.03264693977179936 -0.23175533438856555 0.0 0.6863379063657703 0.72808791420533869 0.0 0.27653079792501084 -0.12531837113071406 0.0 0.0 0.0 0.0 -0.18061445371924328 -0.57677402844439885 0.0 -0.12404241144767658 -1.2170120445478911 0.0 -0.11763299152325395 0.88175681574006637 0.0 -0.25425131346787566 -1.3000220477417286 0.0 -0.45763119869546809 0.91838953664963296 0.0 -0.094332541062332464 -0.98716122248654192 0.0 -0.36122569983557101 -2.4441058253790704 0.0 0.37710833975381108 0.43741680884232104 0.0 0.17445213584346642 -0.87957030515536883 0.0 0.51465862618684799 -0.84295710949598979 0.0 0.0 0.0 0.0 -0.3194805316113043 0.99970734302573194 0.0 0.24123584701509682 -1.1014637435707004 0.0 0.3043109929155674 -1.1504527758615086 0.0 -0.16855746912461814 -0.57825376545634233 0.0 0.15305884572958658 -0.29152037213931864 0.0 0.87273654234880815 -0.66026072609817332 0.0 0.0 0.0 0.0 0.0 0.0 0.0 0.0 0.0 0.0 -0.2059076024750422 -0.082999967574740249 0.0 -1.5436733023332045 -0.23859246537234938 0.0 -0.16599757092486567 -1.769551837572072 0.0 0.137883113903782 -1.8461620506393157 0.0 -0.25736357892140305 -3.2761926807037738 0.0 -0.032685930040390609 1.3416810740987679 0.0 -0.098753282376312534 0.70547317964461642 0.0 1.4258513812203946 -0.0015883477426604439 0.0 0.44125638895746022 0.11562682999936347 0.0 -0.090481118301489 -0.11364550215089289 0.0 -0.30416804919018625 0.5643347800670947 0.0 -0.36478072034828607 0.9158700919198971 0.0 0.48383713286841723 -1.2754854218172942 0.0 -0.75923830663030634 1.1912672908950863 0.0 0.57460546041503935 1.5675075454851188 0.0 0.13507328156105294 0.028353872012525608 0.0 -0.027434447826890279 -0.065704195478913333 0.0 0.25039679964927419 0.4182118471835739 0.0 -0.070858645553764532 0.43042283760997463 0.0 -0.37585263206771802 0.92024653513459687 0.0 0.86674031678868269 1.4102109497149504 0.0 0.17938576742305112 0.23844583121402169 0.0 0.25729964894712337 0.70999378393451729 0.0 0.024803971478576881 0.027094755860072907 0.0 0.53192114698718951 -1.1587728937501083 0.0 -0.28142070830559063 -0.12919043148893913 0.0 0.50807849899456747 -1.7450748051933878 0.0 0.23077953509712357 -0.67673952140903337 0.0 -0.28430315857349875 -1.5744848511119924 0.0 -0.27617177130135917 -1.5360540923509018 0.0 -0.59649925298318229 1.0613289781505462 0.0 0.079563297202121186 -2.6410719013203008 0.0 0.76273976315589453 0.49062777285771431 0.0 -0.82199611211049317 -0.0082795988151150302 0.0 -0.27177360374844362 0.52880677596469561 0.0 -0.21749988237052242 1.530352115184332 0.0 -0.27360421519373646 -0.57238429674425639 0.0 0.20443090494619676 -2.6781047157468971 0.0 0.084727612656456952 1.0358062664135321 0.0 -0.37466430994859479 -0.074146381639601328 0.0 0.33269721702734278 -1.1960289112328579 0.0 0.89993940364532643 1.1662682814944088 0.0 -0.014330183330639734 0.35362571878724558 0.0 0.36490652063180717 -2.7972280602719666 0.0 -0.1783896389733908 -0.86153933275782502 0.0 -1.4807230383785144 0.54991351410878053 0.0 -0.19914722863616885 0.44940818128336291 0.0 -0.27616335908707923 -1.4667849772473709 0.0 0.10408470990103824 -1.6699362392279355 0.0 0.21781424422835804 -1.8517359411761456 0.0 -0.33609201823675794 0.27272762402585571 0.0 -1.099196991208099 1.1416477723651834 0.0 -0.30854730761817767 -0.85344411389231722 0.0 0.72104780864993157 1.4533084785687336 0.0 0.082340054602575763 -1.0750107386571579 0.0 0.53959564058639775 1.7183123601595511 0.0 0.82642626086610127 -0.56002667246194926 0.0 -0.35629457002237397 -0.530937855872882 0.0 0.3423837605390454 0.42697490419909234 0.0 0.18941239216829797 -0.79511449328176664 0.0 0.21504299744338318 -2.0972511708903738 0.0 -0.27065333239377437 0.1705200389965931 0.0 0.13745433584320993 0.21774168317095605 0.0 -0.84303649953401272 0.36670416956667679 0.0 0.56620315871322846 1.5529510891881699 0.0 0.72774787585496836 -0.59670009821248804 0.0 -0.55454337620678951 0.34391410785981136 0.0 0.060332046147336393 0.60974665815244966 0.0 -0.38895805391908511 0.63540313432794127 0.0 0.43850481606128433 1.5144508444018887 0.0 0.035692093126414498 0.73282749114032697 0.0 -0.41796190412103867 -0.91413699804927662 0.0 -0.076441117908322087 -1.9232868713998506 0.0 -0.95166578597471341 0.44182596099496041 0.0 0.08219463465742316 1.3472890729581835 0.0 0.31854643667957228 -1.1214096841734627 0.0 -0.23404872871748972 0.47504215464798077 0.0 -0.60117275167635476 0.33234494000122017 0.0 0.50565144445455579 -0.70136598644593695 0.0 0.095376905320098487 0.83629806402550311 0.0 0.076536183315729756 0.52800151150290953 0.0 0.52286867923720792 -1.0508929512009977 0.0 -0.046948567340975925 0.763736587468831 0.0 0.5937464271798214 1.4468970102710312 0.0 -0.012456733967059153 -1.1842226589242315 0.0 -0.58118910617150799 0.51314758775538805 0.0 </DataArray>
<DataArray Name="radii" format="ascii" type="Float32">1 2 1 2 1 1 1 2 2 1 2 1 2 2 1 2 1 2 1 2 1 2 1 1 1 1 1 2 1 2 2 2 2 2 1 1 1 1 1 2 2 1 1 2 1 2 2 1 2 2 1 1 2 1 2 2 2 2 1 1 1 2 1 2 1 2 2 2 2 2 1 2 1 1 1 2 1 2 1 2 1 2 1 2 1 1 2 2 1 1 2 1 1 1 1 2 2 1 1 1 2 2 1 1 2 1 1 2 1 2 1 1 </DataArray>
</PointData>
<CellData/>
</Piece>
</UnstructuredGrid>
</VTKFile>
