<?xml version="1.0" ?>
<VTKFile byte_order="LittleEndian" type="UnstructuredGrid" version="0.1">
<UnstructuredGrid>
<Piece NumberOfCells="0" NumberOfPoints="34">
<Points>
<DataArray NumberOfComponents="3" format="ascii" type="Float32">1 1 2.0 4.0 1 2.0 7.0 1 2.0 10.0 1 2.0 12.60296878122924 1 2.0 15.200393451634172 2.2099882650613023 2 18.970471713103276 2.0019505784172544 2 22.704230622028916 2.2599647955657911 2 25.148720568234275 1 2.0 27.669044433931322 2.212170128130599 2 31.526486059006885 2.0853495446013475 2 34.212231852816146 1 2.0 36.937260234817295 2.0432414203721643 2 39.603781344036499 1 2.0 42.055404621665318 2.2673527669802476 2 45.703737182557788 2 2 49.313470496586724 2.0185097516742845 2 52.975877025695986 2.2263773073892525 2 55.499081697334937 1 2.0 57.602968781229244 1 2.0 60.200393451634177 2.2099882650613014 2 63.970471713103279 2.0019505784172553 2 67.704230622028916 2.2599647955657876 2 70.148720568234282 1 2.0 72.669044433931319 2.2121701281305945 2 76.526486059006885 2.0853495446013501 2 79.226843454524015 1 2.0 82.012420958647297 2.0044369788716527 2 85.0 1 2.0 88.0 2 2 91.0 1 2.0 93.88754428576361 2.0415492328715725 2 96.687710079209296 1 2.0 99.424745635027094 2.19697389830977 2 </DataArray>
</Points>
<Cells>
<DataArray Name="connectivity" format="ascii" type="Int32">0</DataArray>
<DataArray Name="offsets" format="ascii" type="Int32">0</DataArray>
<DataArray Name="types" format="ascii" type="UInt8">1</DataArray>
</Cells>
<PointData>
<DataArray Name="Points" NumberOfComponents="3" format="ascii" type="Float32">1 1 2.0 4.0 1 2.0 7.0 1 2.0 10.0 1 2.0 12.60296878122924 1 2.0 15.200393451634172 2.2099882650613023 2 18.970471713103276 2.0019505784172544 2 22.704230622028916 2.2599647955657911 2 25.148720568234275 1 2.0 27.669044433931322 2.212170128130599 2 31.526486059006885 2.0853495446013475 2 34.212231852816146 1 2.0 36.937260234817295 2.0432414203721643 2 39.603781344036499 1 2.0 42.055404621665318 2.2673527669802476 2 45.703737182557788 2 2 49.313470496586724 2.0185097516742845 2 52.975877025695986 2.2263773073892525 2 55.499081697334937 1 2.0 57.602968781229244 1 2.0 60.200393451634177 2.2099882650613014 2 63.970471713103279 2.0019505784172553 2 67.704230622028916 2.2599647955657876 2 70.148720568234282 1 2.0 72.669044433931319 2.2121701281305945 2 76.526486059006885 2.0853495446013501 2 79.226843454524015 1 2.0 82.012420958647297 2.0044369788716527 2 85.0 1 2.0 88.0 2 2 91.0 1 2.0 93.88754428576361 2.0415492328715725 2 96.687710079209296 1 2.0 99.424745635027094 2.19697389830977 2 </DataArray>
<DataArray Name="forces" NumberOfComponents="3" format="ascii" type="Float32">0.0 0.0 0.0 0.0 0.0 0.0 0.0 0.0 0.0 0.0 0.0 0.0 -0.14930713422260034 -0.067746756914754888 0.0 -0.11862518243600367 0.079058179101503534 0.0 -0.032474365046861797 -0.025866774182254533 0.0 0.048043892608865546 0.1378284403958904 0.0 0.050655780694820129 -0.21649754035586288 0.0 0.048200592368487477 0.096958440108818017 0.0 0.073340717975749661 0.027978868749309799 0.0 0.024143276688153525 -0.052307357060383239 0.0 -0.047804539318004005 0.059533115315350466 0.0 -0.12781655818766863 -0.15199894468135822 0.0 -0.15423412589842497 0.13376406518726763 0.0 -0.071430698432207729 -0.022764943915220721 0.0 0.067590989608394769 -0.013808049138827116 0.0 0.18247682353518382 0.11259214256815887 0.0 0.20724053006211621 -0.096722885177637136 0.0 -0.14930713422259959 -0.067746756914754444 0.0 -0.11862518243601153 0.079058179101503326 0.0 -0.032474365046847586 -0.02586677418225395 0.0 0.048043892608850391 0.13782844039589337 0.0 0.050655780694826458 -0.2164975403558671 0.0 0.048200592368492279 0.096958440108818086 0.0 0.07334071797575073 0.027978868749308591 0.0 0.054424437518080376 -0.040908075435005319 0.0 0.025741260539458466 0.0091952185323574392 0.0 0.0 0.0 0.0 0.0 0.0 0.0 0.0 0.0 0.0 -0.022435840974017112 0.0083451902239827548 0.0 -2.8993226078414397e-05 -0.018169672611882626 0.0 0.022464834200095526 0.0098244823878998692 0.0 </DataArray>
<DataArray Name="radii" format="ascii" type="Float32">1 1 1 1 1 2 2 2 1 2 2 1 2 1 2 2 2 2 1 1 2 2 2 1 2 2 1 2 1 2 1 2 1 2 </DataArray>
</PointData>
<CellData/>
</Piece>
</UnstructuredGrid>
</VTKFile>
