<?xml version="1.0" ?>
<VTKFile byte_order="LittleEndian" type="UnstructuredGrid" version="0.1">
<UnstructuredGrid>
<Piece NumberOfCells="0" NumberOfPoints="34">
<Points>
<DataArray NumberOfComponents="3" format="ascii" type="Float32">1 1 2.0 4.0 1 2.0 7.0 1 2.0 10.0 1 2.0 12.750870623916864 1 2.0 15.315255407991442 2.1342528742969593 2 18.99807268560777 2.0229149591134639 2 22.652658417312214 2.1346965816245627 2 25.097360086901556 1 2.0 27.625765794676465 2.1241162757390089 2 31.45959463991209 2.0579549210656949 2 34.162002386020987 1 2.0 36.997172376991394 2.0010026053658714 2 39.726691558585074 1 2.0 42.21870106922097 2.1505069405015891 2 45.774187740999494 2.017015155494017 2 49.247451885429797 2.0293390217108458 2 52.798293713777724 2.1222161150960526 2 55.299081697334934 1 2.0 57.750870623916867 1 2.0 60.315255407991451 2.1342528742969593 2 63.998072685607774 2.0229149591134643 2 67.65265841731221 2.1346965816245591 2 70.09736008690156 1 2.0 72.625765794676468 2.1241162757390044 2 76.459594639912098 2.0579549210656971 2 79.162002386020987 1 2.0 82.0 2 2 85.0 1 2.0 88.0 2 2 91.0 1 2.0 93.9148885728453 2.0313781260019472 2 96.687641937681434 1 2.0 99.397469489473266 2.1850455152844654 2 </DataArray>
</Points>
<Cells>
<DataArray Name="connectivity" format="ascii" type="Int32">0</DataArray>
<DataArray Name="offsets" format="ascii" type="Int32">0</DataArray>
<DataArray Name="types" format="ascii" type="UInt8">1</DataArray>
</Cells>
<PointData>
<DataArray Name="Points" NumberOfComponents="3" format="ascii" type="Float32">1 1 2.0 4.0 1 2.0 7.0 1 2.0 10.0 1 2.0 12.750870623916864 1 2.0 15.315255407991442 2.1342528742969593 2 18.99807268560777 2.0229149591134639 2 22.652658417312214 2.1346965816245627 2 25.097360086901556 1 2.0 27.625765794676465 2.1241162757390089 2 31.45959463991209 2.0579549210656949 2 34.162002386020987 1 2.0 36.997172376991394 2.0010026053658714 2 39.726691558585074 1 2.0 42.21870106922097 2.1505069405015891 2 45.774187740999494 2.017015155494017 2 49.247451885429797 2.0293390217108458 2 52.798293713777724 2.1222161150960526 2 55.299081697334934 1 2.0 57.750870623916867 1 2.0 60.315255407991451 2.1342528742969593 2 63.998072685607774 2.0229149591134643 2 67.65265841731221 2.1346965816245591 2 70.09736008690156 1 2.0 72.625765794676468 2.1241162757390044 2 76.459594639912098 2.0579549210656971 2 79.162002386020987 1 2.0 82.0 2 2 85.0 1 2.0 88.0 2 2 91.0 1 2.0 93.9148885728453 2.0313781260019472 2 96.687641937681434 1 2.0 99.397469489473266 2.1850455152844654 2 </DataArray>
<DataArray Name="forces" NumberOfComponents="3" format="ascii" type="Float32">0.0 0.0 0.0 0.0 0.0 0.0 0.0 0.0 0.0 0.0 0.0 0.0 -0.20795070276372371 -0.089506284615823328 0.0 -0.16505021187788335 0.096559055508282518 0.0 -0.02024598385492965 -0.012996130889949827 0.0 0.10344289026872749 0.13371535353651781 0.0 0.076453350938664205 -0.21894208361095802 0.0 0.033109006224592591 0.09332195604067775 0.0 0.06987940039496128 0.040655569858363126 0.0 0.11036225066959114 -0.042807435827110045 0.0 -0.0072426985992061583 0.0025680822573793229 0.0 -0.23970586477854156 -0.11168542818976783 0.0 -0.25276783249312518 0.12071338941881599 0.0 -0.10861276677194143 -0.013227323114199862 0.0 0.10041788923794193 -0.0049568191211992862 0.0 0.25177038838708521 0.11692961641696084 0.0 0.2561408850177872 -0.11034151766798918 0.0 -0.20795070276372207 -0.089506284615822607 0.0 -0.16505021187788321 0.09655905550828181 0.0 -0.020245983854931426 -0.012996130889949303 0.0 0.10344289026871972 0.1337153535365205 0.0 0.076453350938679915 -0.21894208361095718 0.0 0.033109006224584653 0.093321956040673532 0.0 0.069879400394952246 0.040655569858366984 0.0 0.11036225066960018 -0.042807435827113736 0.0 0.0 0.0 0.0 0.0 0.0 0.0 0.0 0.0 0.0 0.0 0.0 0.0 -0.062189882790777064 0.023122092019305387 0.0 -0.00325977587032001 -0.051757592229986916 0.0 0.065449658661097074 0.028635500210681529 0.0 </DataArray>
<DataArray Name="radii" format="ascii" type="Float32">1 1 1 1 1 2 2 2 1 2 2 1 2 1 2 2 2 2 1 1 2 2 2 1 2 2 1 2 1 2 1 2 1 2 </DataArray>
</PointData>
<CellData/>
</Piece>
</UnstructuredGrid>
</VTKFile>
