<?xml version="1.0" ?>
<VTKFile byte_order="LittleEndian" type="UnstructuredGrid" version="0.1">
<UnstructuredGrid>
<Piece NumberOfCells="0" NumberOfPoints="18">
<Points>
<DataArray NumberOfComponents="3" format="ascii" type="Float32">1.1838947532617368 1.1652705470513818 1.187696887935304 3.5836010714100057 1.1588233380508879 1.195285072820391 5.9616756379912905 1.1642776934401864 1.1777394622776449 8.1895759202284975 1 1.0 0.93584020008381652 1 3.3639827037390155 3.0809282074692095 1.1386198099788138 3.785996076548884 7.2946514846744108 1.1596602473867716 3.175337855650846 8.9000000000000004 1.1595834311387667 4.9224300998184924 1.3255402766630355 1 5.3572329599240129 4.2576481995252848 1.3580256921574589 6.0728225620350482 6.9176574966821036 1.3395125622059629 6.6465883930649854 1.2 1.1638088526306456 7.5475174372526386 3.4133731179284399 1.1623535528171809 8.4859071404540316 9.0 1 8.0465877001745074 5.6209664030852524 1 8.5716496755684908 4.0165628308610328 2.779472997511613 2.6522912941912744 5.9496567796206046 2.2850846596656651 4.5176384428037224 8.1980892499355136 2.8155782883080187 8.0780541449231631 </DataArray>
</Points>
<Cells>
<DataArray Name="connectivity" format="ascii" type="Int32">0</DataArray>
<DataArray Name="offsets" format="ascii" type="Int32">0</DataArray>
<DataArray Name="types" format="ascii" type="UInt8">1</DataArray>
</Cells>
<PointData>
<DataArray Name="Points" NumberOfComponents="3" format="ascii" type="Float32">1.1838947532617368 1.1652705470513818 1.187696887935304 3.5836010714100057 1.1588233380508879 1.195285072820391 5.9616756379912905 1.1642776934401864 1.1777394622776449 8.1895759202284975 1 1.0 0.93584020008381652 1 3.3639827037390155 3.0809282074692095 1.1386198099788138 3.785996076548884 7.2946514846744108 1.1596602473867716 3.175337855650846 8.9000000000000004 1.1595834311387667 4.9224300998184924 1.3255402766630355 1 5.3572329599240129 4.2576481995252848 1.3580256921574589 6.0728225620350482 6.9176574966821036 1.3395125622059629 6.6465883930649854 1.2 1.1638088526306456 7.5475174372526386 3.4133731179284399 1.1623535528171809 8.4859071404540316 9.0 1 8.0465877001745074 5.6209664030852524 1 8.5716496755684908 4.0165628308610328 2.779472997511613 2.6522912941912744 5.9496567796206046 2.2850846596656651 4.5176384428037224 8.1980892499355136 2.8155782883080187 8.0780541449231631 </DataArray>
<DataArray Name="forces" NumberOfComponents="3" format="ascii" type="Float32">-0.018951451071111493 0.0017200127850065673 -0.014477383060672755 0.0057252665128996504 -0.0058665810687716282 -0.0055481740329952085 -0.0032854118690877482 0.00055169683560605967 -0.026194537613606184 0.0 0.0 0.0 -0.075498458893836246 -0.0070228538990620461 0.0078451022114517308 0.012088693014002005 -0.029640583413738465 -0.033312716008411958 0.014004773777196491 -0.0048817686913073437 0.0095293206155906262 0.11767252858092654 -0.0049721603126958672 0.0025751217479135363 5.0410387267649874e-06 -6.5779283860179194e-06 -8.7950330892466865e-05 0.010411860766370545 0.0085734615341864183 0.043859609336485084 -0.042194203414175409 -0.013211406599211861 0.033461518236501342 0.0 0.0 0.0 -0.0071016182910790086 -0.0017124880889373723 0.020829471765262189 0.0065256837392281396 -0.014540652806975814 -0.00010145036951409546 -0.0054333843901595187 -0.0016366465671960931 0.007965265908189403 0.020003061224482879 0.037195722741936249 -0.017038146753719983 -0.0061529120013274988 0.0051242252585370473 0.0062327859493785543 0.012282909104652425 0.036030853791784383 0.022065003453015888 </DataArray>
<DataArray Name="radii" format="ascii" type="Float32">1.2 1.2 1.2 1 1 1.2 1.2 1.2 1 1.4 1.4 1.2 1.2 1 1 1 1 1 </DataArray>
</PointData>
<CellData/>
</Piece>
</UnstructuredGrid>
</VTKFile>
