<?xml version="1.0" ?>
<VTKFile byte_order="LittleEndian" type="UnstructuredGrid" version="0.1">
<UnstructuredGrid>
<Piece NumberOfCells="0" NumberOfPoints="34">
<Points>
<DataArray NumberOfComponents="3" format="ascii" type="Float32">1 1 2.0 4.0 1 2.0 7.0 1 2.0 10.0 1 2.0 12.955473490382632 1 2.0 15.533810816070094 2.0437027821810281 2 19.012720459650083 2.0300699655378085 2 22.481852911830195 2.0189404327663834 2 25.022576840620484 1 2.0 27.638840215711195 2.0422736887530339 2 31.376271443338901 2.013034110096207 2 34.040033864735804 1 2.0 37.0 2 2 39.954480014627876 1 2.0 42.518804891459617 2.0443351440258035 2 45.913192073828135 2.025990485222815 2 49.11840773031097 2.030519136857003 2 52.500000000000007 2.018560625947682 2 55.056695332112795 1 2.0 57.955473490382637 1 2.0 60.533810816070094 2.0437027821810276 2 64.012720459650083 2.0300699655378085 2 67.481852911830188 2.0189404327663811 2 70.022576840620488 1 2.0 72.638840215711213 2.0422736887530331 2 76.376271443338908 2.0130341100962061 2 79.040033864735804 1 2.0 82.0 2 2 85.0 1 2.0 88.0 2 2 91.0 1 2.0 93.986277197372829 2.0049572464711316 2 96.720911678950642 1 2.0 99.292811123676529 2.138969723070713 2 </DataArray>
</Points>
<Cells>
<DataArray Name="connectivity" format="ascii" type="Int32">0</DataArray>
<DataArray Name="offsets" format="ascii" type="Int32">0</DataArray>
<DataArray Name="types" format="ascii" type="UInt8">1</DataArray>
</Cells>
<PointData>
<DataArray Name="Points" NumberOfComponents="3" format="ascii" type="Float32">1 1 2.0 4.0 1 2.0 7.0 1 2.0 10.0 1 2.0 12.955473490382632 1 2.0 15.533810816070094 2.0437027821810281 2 19.012720459650083 2.0300699655378085 2 22.481852911830195 2.0189404327663834 2 25.022576840620484 1 2.0 27.638840215711195 2.0422736887530339 2 31.376271443338901 2.013034110096207 2 34.040033864735804 1 2.0 37.0 2 2 39.954480014627876 1 2.0 42.518804891459617 2.0443351440258035 2 45.913192073828135 2.025990485222815 2 49.11840773031097 2.030519136857003 2 52.500000000000007 2.018560625947682 2 55.056695332112795 1 2.0 57.955473490382637 1 2.0 60.533810816070094 2.0437027821810276 2 64.012720459650083 2.0300699655378085 2 67.481852911830188 2.0189404327663811 2 70.022576840620488 1 2.0 72.638840215711213 2.0422736887530331 2 76.376271443338908 2.0130341100962061 2 79.040033864735804 1 2.0 82.0 2 2 85.0 1 2.0 88.0 2 2 91.0 1 2.0 93.986277197372829 2.0049572464711316 2 96.720911678950642 1 2.0 99.292811123676529 2.138969723070713 2 </DataArray>
<DataArray Name="forces" NumberOfComponents="3" format="ascii" type="Float32">0.0 0.0 0.0 0.0 0.0 0.0 0.0 0.0 0.0 0.0 0.0 0.0 -0.15569269298125529 -0.060863139896556111 0.0 -0.45469686286737887 0.061245854025834753 0.0 -0.010153946028174099 0.0039603815681839025 0.0 0.43674824851938188 0.066296543504231087 0.0 0.059523409101730679 -0.11859518470438657 0.0 -0.23071115211081916 0.0506738171610812 0.0 0.22991848039840104 0.04405859860843498 0.0 0.12506451596811383 -0.046776870266823228 0.0 0.0 0.0 0.0 -0.15991286213922615 -0.062639743667241121 0.0 -0.50391977859856829 0.063670012801328099 0.0 -0.21407257059383522 -0.0018760842567462428 0.0 0.19971941403273374 0.0056939931572942189 0.0 0.49780849730803589 0.06437349129974386 0.0 0.18037729999086008 -0.069221669334378816 0.0 -0.15569269298125529 -0.060863139896556083 0.0 -0.4546968628673802 0.061245854025834642 0.0 -0.010153946028179872 0.003960381568184285 0.0 0.43674824851939753 0.066296543504227104 0.0 0.059523409101731595 -0.11859518470437905 0.0 -0.23071115211083573 0.050673817161077446 0.0 0.22991848039840815 0.044058598608434835 0.0 0.12506451596811383 -0.046776870266823187 0.0 0.0 0.0 0.0 0.0 0.0 0.0 0.0 0.0 0.0 0.0 0.0 0.0 -0.05818402799301943 0.021077776024609949 0.0 -0.19660490413575044 -0.13567115192084139 0.0 0.25478893212876985 0.11459337589623145 0.0 </DataArray>
<DataArray Name="radii" format="ascii" type="Float32">1 1 1 1 1 2 2 2 1 2 2 1 2 1 2 2 2 2 1 1 2 2 2 1 2 2 1 2 1 2 1 2 1 2 </DataArray>
</PointData>
<CellData/>
</Piece>
</UnstructuredGrid>
</VTKFile>
