<?xml version="1.0" ?>
<VTKFile byte_order="LittleEndian" type="UnstructuredGrid" version="0.1">
<UnstructuredGrid>
<Piece NumberOfCells="0" NumberOfPoints="60">
<Points>
<DataArray NumberOfComponents="3" format="ascii" type="Float32">3.0866863043246284 3.5154742051022807 2.4019256383614809 2.9614330578842272 1 0.9450001590512227 4.9272216056984171 1.1117934455395229 1.1249314371438028 8.8657057025260233 1.1185402768354284 1.1315519954076614 1.610288041364129 2.2581177901469549 3.1639121349073736 3.988907267552483 5.3530084857340112 3.673222451226053 5.5049632982229708 1.1315554161198333 4.3299860584882071 8.8966298961203059 1.164348214209959 5.4080106345588188 1.1371928801293267 3.3006986837892991 5.8531781501712681 4.4819111500644073 1.1590256543038886 5.4445112601113523 4.8909986201555933 3.0241376738147445 6.8503323919355568 2.8564819886703163 1.1376269808041681 8.8736010094028117 5.0231882508835533 1.1253580126080727 8.9000000000000004 9.0 2.6111524400472619 9.0 7.1807976215697504 1.1202758069094727 8.8769686394211469 1.1409252570619002 1.1026606120735969 1.136631005302152 8.8888123614303787 1.148618672058265 2.8849861175839311 7.176533719274838 4.9454902871764128 1.1836923444908778 2.864916156612288 1.1184410181822695 2.8311194510748483 6.959563945214394 4.8942388510174206 4.5447955040354673 8.8436341535890222 3.7413715726441232 5.8059099592673844 1.1217249080193801 1.1371624037174062 4.8517568829025048 4.4119276469587181 1.1189688061063481 7.2633612733366517 1.1021816230612849 1.1409257947803235 6.8728725868453484 2.3673589020089199 5.1236506985749095 8.8023024251576256 5.1758123859685679 5.0140053791732013 7.9176099585444053 5.022626383674953 4.3119683130834874 1.8364020575627154 0.96294735321146752 3.57937903914004 3.499987814563446 6.6878315795466978 1 5.4333972792118557 9.0 1 7.4692425496445791 1.5841918111692905 5.1607457058062147 1.1965459848395252 4.3097958035238806 1.1562877465773362 2.895297805612941 8.8250953147881503 3.1822949226634769 1.168262724793437 5.1258951541347164 3.2595896444737327 4.0097331903931366 7.8684475900371336 1.1197993307263685 3.9456492221751418 8.8580195444962211 3.4609656169093759 3.5637228085688748 3.4037736369839808 5.0848958662046773 6.1186484263778445 2.6742514269234952 1.1085215477243116 6.8621109722401865 1.1158858339109554 1.1135613381442278 8.8735335715824455 3.7760769716578046 3.1674044938673993 8.8579918389137351 6.2213037749042739 3.1233710548543265 8.8274626105009197 1.1691802840510135 2.967470144882586 1.1634533327409839 6.4062114702732789 1.1217641341946141 2.7185356044171933 7.081391157985073 1.1297755019540803 1.1155485049238645 3.0770990323663421 3.1148901683865393 4.5944036537496498 6.8899659907659361 3.17814913950824 2.6953351422768064 7.972928185168298 2.8372907628893413 7.2749552426313784 2.8798682900043047 1.1093767347798158 4.8544315723263258 6.1898335569897496 1.1503293942554689 7.0084285995237838 1.1642700365749685 3.1612256442079478 8.5546320505103104 2.9112629079071812 3.0680825898202566 6.9265090867175028 8.2617766197368976 4.6373480776041687 8.811246823665245 3.8598919746840963 2.7214913121383768 0.95584675301583399 0.92340595357441735 1 3.0075202523792259 6.2773830443080456 3.3523506473964284 6.0965351404606176 9.0 1 9.0 5.9806869743245823 2.9103105826767317 0.95142325729058641 1.7421415828396141 5.0609905756694422 4.4537175179709401 7.1577264287456979 2.662719645945725 4.8362213803949787 7.7840611816996894 1 6.7930885019911065 </DataArray>
</Points>
<Cells>
<DataArray Name="connectivity" format="ascii" type="Int32">0</DataArray>
<DataArray Name="offsets" format="ascii" type="Int32">0</DataArray>
<DataArray Name="types" format="ascii" type="UInt8">1</DataArray>
</Cells>
<PointData>
<DataArray Name="Points" NumberOfComponents="3" format="ascii" type="Float32">3.0866863043246284 3.5154742051022807 2.4019256383614809 2.9614330578842272 1 0.9450001590512227 4.9272216056984171 1.1117934455395229 1.1249314371438028 8.8657057025260233 1.1185402768354284 1.1315519954076614 1.610288041364129 2.2581177901469549 3.1639121349073736 3.988907267552483 5.3530084857340112 3.673222451226053 5.5049632982229708 1.1315554161198333 4.3299860584882071 8.8966298961203059 1.164348214209959 5.4080106345588188 1.1371928801293267 3.3006986837892991 5.8531781501712681 4.4819111500644073 1.1590256543038886 5.4445112601113523 4.8909986201555933 3.0241376738147445 6.8503323919355568 2.8564819886703163 1.1376269808041681 8.8736010094028117 5.0231882508835533 1.1253580126080727 8.9000000000000004 9.0 2.6111524400472619 9.0 7.1807976215697504 1.1202758069094727 8.8769686394211469 1.1409252570619002 1.1026606120735969 1.136631005302152 8.8888123614303787 1.148618672058265 2.8849861175839311 7.176533719274838 4.9454902871764128 1.1836923444908778 2.864916156612288 1.1184410181822695 2.8311194510748483 6.959563945214394 4.8942388510174206 4.5447955040354673 8.8436341535890222 3.7413715726441232 5.8059099592673844 1.1217249080193801 1.1371624037174062 4.8517568829025048 4.4119276469587181 1.1189688061063481 7.2633612733366517 1.1021816230612849 1.1409257947803235 6.8728725868453484 2.3673589020089199 5.1236506985749095 8.8023024251576256 5.1758123859685679 5.0140053791732013 7.9176099585444053 5.022626383674953 4.3119683130834874 1.8364020575627154 0.96294735321146752 3.57937903914004 3.499987814563446 6.6878315795466978 1 5.4333972792118557 9.0 1 7.4692425496445791 1.5841918111692905 5.1607457058062147 1.1965459848395252 4.3097958035238806 1.1562877465773362 2.895297805612941 8.8250953147881503 3.1822949226634769 1.168262724793437 5.1258951541347164 3.2595896444737327 4.0097331903931366 7.8684475900371336 1.1197993307263685 3.9456492221751418 8.8580195444962211 3.4609656169093759 3.5637228085688748 3.4037736369839808 5.0848958662046773 6.1186484263778445 2.6742514269234952 1.1085215477243116 6.8621109722401865 1.1158858339109554 1.1135613381442278 8.8735335715824455 3.7760769716578046 3.1674044938673993 8.8579918389137351 6.2213037749042739 3.1233710548543265 8.8274626105009197 1.1691802840510135 2.967470144882586 1.1634533327409839 6.4062114702732789 1.1217641341946141 2.7185356044171933 7.081391157985073 1.1297755019540803 1.1155485049238645 3.0770990323663421 3.1148901683865393 4.5944036537496498 6.8899659907659361 3.17814913950824 2.6953351422768064 7.972928185168298 2.8372907628893413 7.2749552426313784 2.8798682900043047 1.1093767347798158 4.8544315723263258 6.1898335569897496 1.1503293942554689 7.0084285995237838 1.1642700365749685 3.1612256442079478 8.5546320505103104 2.9112629079071812 3.0680825898202566 6.9265090867175028 8.2617766197368976 4.6373480776041687 8.811246823665245 3.8598919746840963 2.7214913121383768 0.95584675301583399 0.92340595357441735 1 3.0075202523792259 6.2773830443080456 3.3523506473964284 6.0965351404606176 9.0 1 9.0 5.9806869743245823 2.9103105826767317 0.95142325729058641 1.7421415828396141 5.0609905756694422 4.4537175179709401 7.1577264287456979 2.662719645945725 4.8362213803949787 7.7840611816996894 1 6.7930885019911065 </DataArray>
<DataArray Name="forces" NumberOfComponents="3" format="ascii" type="Float32">-0.0034679421894306395 0.46290374668835532 0.030026664412824422 0.0032108371587216689 -0.33017827868892591 -0.71826603718338289 -0.017351709163151874 -0.67929106119809113 -0.98035191065350036 0.85807838276604398 -0.5911813558815231 -0.89389125792993729 -0.083502415701649291 0.35773218312286037 0.040975841322793471 0.011894411611847261 0.47150319745786001 0.0088868471714344636 0.035154838082349038 -0.42121118222401049 0.0033023288183191002 1.2619304231154489 0.0070437495363535885 -0.005829112396135705 -0.82022457371148116 0.47209013729103594 -0.0085439285221491357 0.011059903430210072 -0.062465797136060035 0.0099311669774279909 -0.0108122811750615 0.3005680830927554 0.013368712586245224 0.018031465370944588 -0.34192006737549019 0.96118651335171756 0.053886798819490322 -0.50214567920490738 1.3059420260002603 0.34043808733281522 0.34716237304602016 0.36695270657695261 0.025222231391727051 -0.56851633927070588 1.0051658090413533 -0.77148189478026619 -0.79856057159423544 -0.82756233321307271 1.1598379522025559 -0.19837495192004653 -0.010279627859565349 -0.013295493371103105 0.46126164252767188 -0.21296852674897235 -0.026554897410152267 -0.59247761634756757 -0.03261669013441789 -0.0016705180069713117 0.48769504485219672 -0.018296880122922781 0.5698367494085228 0.51186850698999597 -0.0055775852320429642 -1.0222273220652756 -0.347987174794684 0.0044706858765911628 -0.054496664854808113 -0.58558501203887081 0.013086375659630306 -1.2774512935940283 -0.298839469301307 0.021116870833246412 0.035584740301306039 0.46104642225272319 0.030068337750618665 0.043418494060166041 0.46461068834181418 -0.018580496030699695 -0.0027091728496677625 0.31492657593705081 0.023900856634950146 -0.4838860861568815 0.4118744344722497 -0.0092777895300440727 0.0080396584890200518 -0.58228295057884594 -0.013340234658681172 1.0145922223174344 -0.31213941199486761 -0.0038538952148234329 0.010677016583949553 0.47123559814803384 -0.045107435565060451 -0.0038588383026662565 -0.098221284770215495 0.031105536740596518 0.32773026237549918 0.47832188575391621 -0.41447041482986757 -0.0010646224837562446 0.47680410849741511 0.033411062962071789 0.019572735057716395 -0.5747388419897459 -0.0087335118560509795 0.75770161487005239 0.48016707705018458 -0.003994609005937122 0.048715919254410989 0.46646687330831471 0.0030722186115168526 -0.018083640302502632 -0.7220201498147204 -0.04510640222261468 -1.098482244776491 -0.65620340869870042 0.96030581451412123 0.038223162407314881 0.47180291114858131 0.75733979602483603 0.039133506559722697 0.48570472069383946 0.35864577196826902 -0.40248762287171785 0.47491857997673464 -0.47727828683796741 -0.0074804096021671151 -0.54907964776961626 -0.016398157952328414 -0.0047172809534335447 -0.44445582934131078 -1.1028875657847927 -0.0093240679298254234 0.4565705178383056 0.022139736912158876 -0.0055422409831262544 0.4611245523774119 0.01586354565188397 0.015537154556634326 0.47427891660253307 -0.017613520833579699 -0.00522806085899645 -0.71085190265597731 -0.026620616027999977 -0.0013927979982788496 -0.17603391179864425 -0.0042899425102267269 -0.46661260824200668 0.46564648419478316 0.093800415654800393 -0.048408001972412601 0.52014841577876025 0.072308178926260597 0.024830828011503374 0.49747771477575731 0.146876996834577 -0.023590699166769286 0.3455849125241422 -0.57661580820991654 -1.0002738416858341 -0.88786031001606047 -0.0019264982550026843 -0.014984196054135146 0.38976976389321355 0.03336296174702752 0.57019676400646258 -0.65291808757610281 0.73215763180872362 -0.016608284676466092 0.32412377147642535 -0.6343840979042491 0.036020257762137679 0.34648133255025515 0.034686044169359172 0.0099591957741973491 0.34308180985916314 0.041007610751318369 -0.0023105098040421268 -0.70081647497558275 -0.02368502310397351 </DataArray>
<DataArray Name="radii" format="ascii" type="Float32">1.2 1 1.2 1.2 1 1.2 1.2 1.2 1.2 1.2 1 1.2 1.2 1 1.2 1.2 1.2 1.2 1.2 1.2 1.2 1.2 1.2 1.2 1.2 1.2 1 1 1 1 1.2 1.2 1.2 1.2 1.2 1.2 1.2 1.2 1.2 1.2 1.2 1.2 1.2 1.2 1.2 1.2 1.2 1.2 1.2 1.2 1.2 1.2 1 1 1 1 1 1 1 1 </DataArray>
</PointData>
<CellData/>
</Piece>
</UnstructuredGrid>
</VTKFile>
