<?xml version="1.0" ?>
<VTKFile byte_order="LittleEndian" type="UnstructuredGrid" version="0.1">
<UnstructuredGrid>
<Piece NumberOfCells="0" NumberOfPoints="34">
<Points>
<DataArray NumberOfComponents="3" format="ascii" type="Float32">1.9649125678729862 2.0346257553885008 2.0 4.0692515107770015 0.98245628393649309 2.0 7.0 1.0 2.0 10.0 1.0 2.0 12.901351351351352 2.0 2.0 16.098648648648648 2.0 2.0 19.0 1.0 2.0 22.0 2.0 2.0 25.0 1.0 2.0 28.0 1.0 2.0 30.898648648648649 2.0 2.0 34.0 2.0 2.0 37.101351351351347 2.0 2.0 40.0 1.0 2.0 42.901351351351352 2.0 2.0 46.098648648648648 2.0 2.0 49.0 1.0 2.0 52.0 2.0 2.0 55.0 1.0 2.0 58.0 2.0 2.0 61.0 1.0 2.0 64.0 2.0 2.0 67.0 1.0 2.0 70.0 2.0 2.0 73.0 1.0 2.0 76.0 1.0 2.0 79.0 1.0 2.0 82.0 1.0 2.0 84.898648648648646 2.0 2.0 87.997297297297294 2.0 2.0 91.0 2.0 2.0 93.997297297297294 2.0 2.0 96.906756756756764 2.0 2.0 99.199999999999989 2.0 2.0 </DataArray>
</Points>
<Cells>
<DataArray Name="connectivity" format="ascii" type="Int32">0</DataArray>
<DataArray Name="offsets" format="ascii" type="Int32">0</DataArray>
<DataArray Name="types" format="ascii" type="UInt8">1</DataArray>
</Cells>
<PointData>
<DataArray Name="Points" NumberOfComponents="3" format="ascii" type="Float32">1.9649125678729862 2.0346257553885008 2.0 4.0692515107770015 0.98245628393649309 2.0 7.0 1.0 2.0 10.0 1.0 2.0 12.901351351351352 2.0 2.0 16.098648648648648 2.0 2.0 19.0 1.0 2.0 22.0 2.0 2.0 25.0 1.0 2.0 28.0 1.0 2.0 30.898648648648649 2.0 2.0 34.0 2.0 2.0 37.101351351351347 2.0 2.0 40.0 1.0 2.0 42.901351351351352 2.0 2.0 46.098648648648648 2.0 2.0 49.0 1.0 2.0 52.0 2.0 2.0 55.0 1.0 2.0 58.0 2.0 2.0 61.0 1.0 2.0 64.0 2.0 2.0 67.0 1.0 2.0 70.0 2.0 2.0 73.0 1.0 2.0 76.0 1.0 2.0 79.0 1.0 2.0 82.0 1.0 2.0 84.898648648648646 2.0 2.0 87.997297297297294 2.0 2.0 91.0 2.0 2.0 93.997297297297294 2.0 2.0 96.906756756756764 2.0 2.0 99.199999999999989 2.0 2.0 </DataArray>
<DataArray Name="forces" NumberOfComponents="3" format="ascii" type="Float32">-0.6491174943497604 0.3245587471748802 0.0 0.6491174943497604 -0.3245587471748802 0.0 0.0 0.0 0.0 0.0 0.0 0.0 -0.89999999999999858 0.0 0.0 0.89999999999999858 0.0 0.0 0.0 0.0 0.0 0.0 0.0 0.0 0.0 0.0 0.0 0.0 0.0 0.0 -0.94999999999999929 0.0 0.0 -3.5527136788005009e-15 0.0 0.0 0.95000000000000284 0.0 0.0 0.0 0.0 0.0 -0.90000000000000568 0.0 0.0 0.90000000000000568 0.0 0.0 0.0 0.0 0.0 0.0 0.0 0.0 0.0 0.0 0.0 0.0 0.0 0.0 0.0 0.0 0.0 0.0 0.0 0.0 0.0 0.0 0.0 0.0 0.0 0.0 0.0 0.0 0.0 0.0 0.0 0.0 0.0 0.0 0.0 0.0 0.0 0.0 -0.95000000000000284 0.0 0.0 -0.049999999999997158 0.0 0.0 0.0 0.0 0.0 -0.049999999999997158 0.0 0.0 -0.80000000000001137 0.0 0.0 1.8500000000000085 0.0 0.0 </DataArray>
<DataArray Name="radii" format="ascii" type="Float32">2 1 1 1 2 2 1 2 1 1 2 2 2 1 2 2 1 2 1 2 1 2 1 2 1 1 1 1 2 2 2 2 2 2 </DataArray>
</PointData>
<CellData/>
</Piece>
</UnstructuredGrid>
</VTKFile>
