<?xml version="1.0" ?>
<VTKFile byte_order="LittleEndian" type="UnstructuredGrid" version="0.1">
<UnstructuredGrid>
<Piece NumberOfCells="0" NumberOfPoints="60">
<Points>
<DataArray NumberOfComponents="3" format="ascii" type="Float32">2.9921615555326775 3.1690523988301686 2.8237169764442167 3.0483512116953158 1 0.93123535672687008 4.8039910573002205 1.1210737523059071 1.1235277392359253 8.8669887098312206 1.1211410469526917 1.1271748140000277 0.98337156590637531 2.6893931948717245 3.6041794100538351 3.7767060377408002 5.2883527390601408 3.6151498463478062 5.7624530662959117 1.1392823535806396 4.1465507401173838 8.9000000000000004 1.1561858687664919 5.3876905886387325 1.1230255574465537 3.1613818614897049 5.9076862939185917 4.565856062345337 1.1266169508615462 5.4080255348575292 4.7087683966572849 2.9180883265663131 6.608853524611753 2.9071366123933426 1.1497026709437062 8.8808815932675707 5.2505254856384989 1.1271283689856664 8.8941382672748315 9.0 2.6191019668013586 9.0 7.2680253858824049 1.1187400044052018 8.8677892436489341 1.1189719856887004 1.1109751289158152 1.1246823965715675 8.8906695613190116 1.1498423180773578 2.8564833905563032 6.9613499670628229 4.8253249713916979 1.1845389188195803 2.4916640339259506 1.1358150403306162 2.5103773155770779 6.8707833982195652 4.9318354736586016 4.5059173393365208 8.8239679915531308 4.3620083024690439 5.8744865638103247 1.1199690495505532 1.1179887788729033 4.9789349697946275 4.0027998362056447 1.1177258416015685 7.4739723687464554 1.1196968101379117 1.141503321445708 7.1257458769405826 2.6396019333035885 5.1377527268638632 8.8110593437609293 5.5196310194751721 5.1040448986304652 8.0752047252615498 4.8943943782471324 4.0748444511941262 2.0784900015503056 0.99319555739516674 4.4800013702274457 2.9329551414450856 6.7194842055513542 1 5.4587911123043336 9.0 1 7.3957699643222998 2.5735831839347361 4.9488609623107536 1.1887568643785624 4.4027076151441298 1.1527519599508183 2.9301448054274148 8.8181363930290875 3.2386596598878419 1.1842259124784007 5.0970151427095596 3.2990846041522222 4.3255597727724799 7.9218443266026499 1.1238725677391961 3.9846673375615982 8.8540464800105596 3.4120183422934813 3.7038451459472834 3.9587110592961405 4.9668920798277947 6.1111780982021884 2.7390150935868416 1.1155124081756511 6.3458770951676309 1.127312100527317 1.1137152706122913 8.8754282683888182 4.233636043194652 3.2069194265555274 8.854753561519237 6.6562308133393184 3.1506780748653287 8.8248632889866254 1.17207211715988 3.0388401781009153 1.1776715148316756 6.4940682310813855 1.11460946382957 2.4657985507320013 7.0666817855825625 1.138656997792876 1.0938098564685088 3.0362949246197508 3.0822107450734904 4.9376411059267564 6.8482514735991913 3.1195304796716687 2.8301794657590178 8.3963062415359335 2.8059463332549264 7.1287154850206074 2.9275011701396232 1.1044473299353332 4.2627132906546121 5.9936405197198317 1.1632015433009752 6.9871080016365674 1.1582705613557653 3.2054540111525172 8.8316974735053115 2.6875467803531579 3.2440384550306685 7.3231423159701645 8.6359322371977587 4.6898191597344097 8.8034928531419112 3.5837364786983126 2.8655182896544971 0.95622474652808009 0.92235582376599756 1 3.1291510506339413 6.4095540751135411 3.6486055569075826 6.5451394234378499 9.0 1 9.0 5.7841169237446595 2.8761293972126669 0.95271922763503747 1.7839524171687065 4.9923496176437423 4.8353187961776705 7.1846221495405773 2.7653121565925307 5.1390999413731473 7.6066776184918643 1 6.883470152357015 </DataArray>
</Points>
<Cells>
<DataArray Name="connectivity" format="ascii" type="Int32">0</DataArray>
<DataArray Name="offsets" format="ascii" type="Int32">0</DataArray>
<DataArray Name="types" format="ascii" type="UInt8">1</DataArray>
</Cells>
<PointData>
<DataArray Name="Points" NumberOfComponents="3" format="ascii" type="Float32">2.9921615555326775 3.1690523988301686 2.8237169764442167 3.0483512116953158 1 0.93123535672687008 4.8039910573002205 1.1210737523059071 1.1235277392359253 8.8669887098312206 1.1211410469526917 1.1271748140000277 0.98337156590637531 2.6893931948717245 3.6041794100538351 3.7767060377408002 5.2883527390601408 3.6151498463478062 5.7624530662959117 1.1392823535806396 4.1465507401173838 8.9000000000000004 1.1561858687664919 5.3876905886387325 1.1230255574465537 3.1613818614897049 5.9076862939185917 4.565856062345337 1.1266169508615462 5.4080255348575292 4.7087683966572849 2.9180883265663131 6.608853524611753 2.9071366123933426 1.1497026709437062 8.8808815932675707 5.2505254856384989 1.1271283689856664 8.8941382672748315 9.0 2.6191019668013586 9.0 7.2680253858824049 1.1187400044052018 8.8677892436489341 1.1189719856887004 1.1109751289158152 1.1246823965715675 8.8906695613190116 1.1498423180773578 2.8564833905563032 6.9613499670628229 4.8253249713916979 1.1845389188195803 2.4916640339259506 1.1358150403306162 2.5103773155770779 6.8707833982195652 4.9318354736586016 4.5059173393365208 8.8239679915531308 4.3620083024690439 5.8744865638103247 1.1199690495505532 1.1179887788729033 4.9789349697946275 4.0027998362056447 1.1177258416015685 7.4739723687464554 1.1196968101379117 1.141503321445708 7.1257458769405826 2.6396019333035885 5.1377527268638632 8.8110593437609293 5.5196310194751721 5.1040448986304652 8.0752047252615498 4.8943943782471324 4.0748444511941262 2.0784900015503056 0.99319555739516674 4.4800013702274457 2.9329551414450856 6.7194842055513542 1 5.4587911123043336 9.0 1 7.3957699643222998 2.5735831839347361 4.9488609623107536 1.1887568643785624 4.4027076151441298 1.1527519599508183 2.9301448054274148 8.8181363930290875 3.2386596598878419 1.1842259124784007 5.0970151427095596 3.2990846041522222 4.3255597727724799 7.9218443266026499 1.1238725677391961 3.9846673375615982 8.8540464800105596 3.4120183422934813 3.7038451459472834 3.9587110592961405 4.9668920798277947 6.1111780982021884 2.7390150935868416 1.1155124081756511 6.3458770951676309 1.127312100527317 1.1137152706122913 8.8754282683888182 4.233636043194652 3.2069194265555274 8.854753561519237 6.6562308133393184 3.1506780748653287 8.8248632889866254 1.17207211715988 3.0388401781009153 1.1776715148316756 6.4940682310813855 1.11460946382957 2.4657985507320013 7.0666817855825625 1.138656997792876 1.0938098564685088 3.0362949246197508 3.0822107450734904 4.9376411059267564 6.8482514735991913 3.1195304796716687 2.8301794657590178 8.3963062415359335 2.8059463332549264 7.1287154850206074 2.9275011701396232 1.1044473299353332 4.2627132906546121 5.9936405197198317 1.1632015433009752 6.9871080016365674 1.1582705613557653 3.2054540111525172 8.8316974735053115 2.6875467803531579 3.2440384550306685 7.3231423159701645 8.6359322371977587 4.6898191597344097 8.8034928531419112 3.5837364786983126 2.8655182896544971 0.95622474652808009 0.92235582376599756 1 3.1291510506339413 6.4095540751135411 3.6486055569075826 6.5451394234378499 9.0 1 9.0 5.7841169237446595 2.8761293972126669 0.95271922763503747 1.7839524171687065 4.9923496176437423 4.8353187961776705 7.1846221495405773 2.7653121565925307 5.1390999413731473 7.6066776184918643 1 6.883470152357015 </DataArray>
<DataArray Name="forces" NumberOfComponents="3" format="ascii" type="Float32">-0.013040770539640756 0.44605123183043122 0.011124319614348843 0.002167093275334625 -0.39119207091217872 -0.8706767566780893 0.0019516316781866827 -0.54109869223440543 -0.96826823798739881 0.84819043382846115 -0.540246628120999 -0.92209009940012454 -0.21054411651299629 0.34425935882779118 0.023394172723933002 -0.034509024080459208 0.44895259575667434 0.0019710075704109653 0.023612114971189799 -0.31054698503572226 0.0009599521821046994 1.2661692335402686 -0.09651987636565279 -0.0007794339608583889 -0.97462670930086437 0.45933680748670913 0.035762233035460056 0.00071954824504066872 -0.47091241756885488 -0.0075820248955150715 0.019525997841886245 0.31564241621494715 -0.0046134555061822149 0.0089105534345023368 -0.17860813254731855 1.024097849551149 0.017498968973719942 -0.46443699862649623 1.1919497772218137 0.29061323639216341 0.31662896393481604 0.45663930223849492 0.0076500157988109718 -0.57064789014152939 0.85832654673244313 -1.0259517877582811 -0.6689643546108518 -0.95364832205068284 1.1480300896072526 -0.17683996350550166 -0.003035131542520858 -0.025322227971028038 0.45571973412114519 -0.19576345307915927 -0.019997881391933925 -0.35444903863798355 -0.0062062524459671753 -0.016504663577832833 0.46349989127973301 -0.0058225484063154087 0.30347533494326184 0.54130981912427378 0.0041975100028263414 -1.0133272719007511 -0.58015967670599122 0.0061322372641446909 -0.012482763701780322 -0.58348890753914229 0.0038946536353216838 -1.016774283585191 -0.28242577324141094 0.0083027385088612817 0.033577134146686498 0.45541930865410402 0.1400300081323248 0.021871257481537829 0.47324916265947697 0.033413326400103568 -0.0089937612007374157 0.29462800854921312 0.02287609493763873 -0.086155758776304658 0.35437843238256617 -0.043441925390193897 0.0071305038999097681 -0.58455629078655413 0.012071363245460931 1.0074128690219231 -0.51970725263554196 -0.0053319731702011208 0.11136679231273283 0.44869051677219729 -0.14235712412384854 0.0015896523321293765 -0.13999897329754052 5.6728346333911883e-05 0.22963742860824204 0.46932090179684499 -0.19972664307020344 -0.0015675768879114538 0.45519453721531861 0.0043498353232527751 0.0068328640678607944 -0.5056609523145249 0.0069960234992008097 0.68431990170518908 0.45811335072318349 0.023583951938686731 0.051044482865971672 0.4560389272005696 0.0019023226730589815 0.0026108928855452171 -0.61151472058300571 -0.0074953425863641676 -0.92035181962979074 -0.63426952349466392 0.95504952773139373 0.047215722142547656 0.45488980434736281 0.69327275022412205 0.060066033618673687 0.4629410080321571 0.31481131559484682 -0.35361426010077174 0.48548420741438214 -0.28271640951692451 0.0013045861015751753 -0.62294752408907472 -0.0057974979605384253 -0.0016275349180031318 -0.3184650476205475 -1.3445469264479928 -0.0055749274553703598 0.4697063560323389 0.015266867901150727 0.01177041407305876 0.45775899795746167 0.00485219932614573 0.093966703765513915 0.46553677454483711 -0.021226579083467208 0.0064727177421148169 -0.75161733692906829 -0.0056474275103210805 -0.015975122446758472 -0.0076895638847045283 -0.0027746628382824753 -0.52836531344236237 0.46617867508212002 0.40134365733383331 0.023817396148608116 0.46274143426185083 0.012956630741641828 0.061561677975626179 0.46595999248824282 0.044225431855605013 0.0046150893443267331 0.29669448508494151 -0.55426879136571794 -0.98310667111072336 -0.65031249504684951 0.015631938566787809 0.039114991049888637 0.32390777210706423 0.041382793524148226 0.6558047549542152 -0.65647486928503662 0.67189380834691037 -0.012469013904265636 0.31812845650058919 -0.59865459306536517 -0.039545197960232155 0.30550048962267806 -0.007011541865282217 0.0079798115970196037 0.33302964713923427 0.022215131661628085 -0.012449314915256471 -0.59422433517001716 0.023470655403992284 </DataArray>
<DataArray Name="radii" format="ascii" type="Float32">1.2 1 1.2 1.2 1 1.2 1.2 1.2 1.2 1.2 1 1.2 1.2 1 1.2 1.2 1.2 1.2 1.2 1.2 1.2 1.2 1.2 1.2 1.2 1.2 1 1 1 1 1.2 1.2 1.2 1.2 1.2 1.2 1.2 1.2 1.2 1.2 1.2 1.2 1.2 1.2 1.2 1.2 1.2 1.2 1.2 1.2 1.2 1.2 1 1 1 1 1 1 1 1 </DataArray>
</PointData>
<CellData/>
</Piece>
</UnstructuredGrid>
</VTKFile>
