<?xml version="1.0" ?>
<VTKFile byte_order="LittleEndian" type="UnstructuredGrid" version="0.1">
<UnstructuredGrid>
<Piece NumberOfCells="0" NumberOfPoints="75">
<Points>
<DataArray NumberOfComponents="3" format="ascii" type="Float32">0.81310379507938291 1 2.0 4.0207122991202358 2.2958697928115863 2.0 6.9372648839500357 1 2.0 10.682080398607321 3.3070756229230969 2.0 13.0 1.0 2.0 16.0 1.0 2.0 19.0 1.0 2.0 21.152796587366463 2.0263405561200014 2.0 24.505713651460347 2.1824050461928413 2.0 28.0 1.0 2.0 30.487771464467617 3.1332333587206289 2.0 33.792252719998338 1 2.0 36.559876418902917 1.7130279507714783 2.0 39.855846251205662 2.4163518872837173 2.0 43.365215514238379 1 2.0 45.361639707469315 1.3252423391323327 2.0 49.0 1.0 2.0 52.808338104389861 2.6998722267369826 2.0 54.951791281846091 1.0 2.0 57.238918221752478 1.9072224341517379 2.0 61.563941279434147 1 2.0 64.224391888243474 1.7990622597581567 2.0 67.185880788764408 1 2.0 70.0 1.0 2.0 73.0 1.0 2.0 76.0 1.0 2.0 78.726410433969875 1 2.0 82.023049399489139 1.4850028634080843 2.0 84.942086058804577 1.0 2.0 86.525296284205766 1.7641152255953021 2.0 91.114228993740952 1.4422735327527199 2.0 93.710022987121448 4.4706558795620852 2.0 97.394545340370215 2.8079220269112928 2.0 101.19847786792648 2.709329143832242 2.0 5.7531161140480389 2.2569370719980131 2.0 8.7272023023502161 1 2.0 21.761819524466738 3.7514299093772459 2.0 26.100011896701151 3.2698899709737552 2.0 32.026895233834374 1 2.0 36.925860939396514 3.4980992964948396 2.0 42.41415597060967 2.5188315940903823 2.0 47.500170258364534 2.6910136359956445 2.0 51.350987290928337 1.0 2.0 59.096955372813092 2.6245780218604486 2.0 62.564834306954069 2.4333072503881699 2.0 83.18903931554506 4.1644321549985932 2.0 88.46015453389451 4.5406259400233715 2.0 90.614686780582588 4.0467314125042266 2.0 92.464476689282805 2.5370211724334157 2.0 95.734162317689567 2.2666560943444347 2.0 100.04690496095859 1 2.0 2.5535501744863653 1.4847743873238117 2.0 10.443236834283452 1.5232538292537832 2.0 22.861591844409983 1.4514844126732673 2.0 25.921563511547607 1.0766844426051219 2.0 30.280025515984299 1.3319916687270799 2.0 34.909162162045909 2.3474534312211404 2.0 38.312841739647709 1.5159887602900195 2.0 45.560506653815651 3.1158191314479433 2.0 51.097026784465868 3.2610965878691394 2.0 56.159260300843869 3.3488402156686328 2.0 65.939529755242006 2.2596251831396419 2.0 80.276635605486106 1.8995327081668343 2.0 88.157449100170027 1 2.0 89.658073514800293 2.5032211616011906 2.0 94.166357128144483 2.7638380219008938 2.0 98.33531604199905 1.2664253648337187 2.0 99.38471058351962 2.6972515432827877 2.0 37.959853427093364 4.9757826457987457 2.0 41.174094641873275 1.2085543225292843 2.0 59.794056855151048 1 2.0 81.624547501481288 3.2674234618028426 2.0 86.9724221835626 3.5131981437314326 2.0 93.429491044296384 1 2.0 96.678872940969342 1 2.0 </DataArray>
</Points>
<Cells>
<DataArray Name="connectivity" format="ascii" type="Int32">0</DataArray>
<DataArray Name="offsets" format="ascii" type="Int32">0</DataArray>
<DataArray Name="types" format="ascii" type="UInt8">1</DataArray>
</Cells>
<PointData>
<DataArray Name="Points" NumberOfComponents="3" format="ascii" type="Float32">0.81310379507938291 1 2.0 4.0207122991202358 2.2958697928115863 2.0 6.9372648839500357 1 2.0 10.682080398607321 3.3070756229230969 2.0 13.0 1.0 2.0 16.0 1.0 2.0 19.0 1.0 2.0 21.152796587366463 2.0263405561200014 2.0 24.505713651460347 2.1824050461928413 2.0 28.0 1.0 2.0 30.487771464467617 3.1332333587206289 2.0 33.792252719998338 1 2.0 36.559876418902917 1.7130279507714783 2.0 39.855846251205662 2.4163518872837173 2.0 43.365215514238379 1 2.0 45.361639707469315 1.3252423391323327 2.0 49.0 1.0 2.0 52.808338104389861 2.6998722267369826 2.0 54.951791281846091 1.0 2.0 57.238918221752478 1.9072224341517379 2.0 61.563941279434147 1 2.0 64.224391888243474 1.7990622597581567 2.0 67.185880788764408 1 2.0 70.0 1.0 2.0 73.0 1.0 2.0 76.0 1.0 2.0 78.726410433969875 1 2.0 82.023049399489139 1.4850028634080843 2.0 84.942086058804577 1.0 2.0 86.525296284205766 1.7641152255953021 2.0 91.114228993740952 1.4422735327527199 2.0 93.710022987121448 4.4706558795620852 2.0 97.394545340370215 2.8079220269112928 2.0 101.19847786792648 2.709329143832242 2.0 5.7531161140480389 2.2569370719980131 2.0 8.7272023023502161 1 2.0 21.761819524466738 3.7514299093772459 2.0 26.100011896701151 3.2698899709737552 2.0 32.026895233834374 1 2.0 36.925860939396514 3.4980992964948396 2.0 42.41415597060967 2.5188315940903823 2.0 47.500170258364534 2.6910136359956445 2.0 51.350987290928337 1.0 2.0 59.096955372813092 2.6245780218604486 2.0 62.564834306954069 2.4333072503881699 2.0 83.18903931554506 4.1644321549985932 2.0 88.46015453389451 4.5406259400233715 2.0 90.614686780582588 4.0467314125042266 2.0 92.464476689282805 2.5370211724334157 2.0 95.734162317689567 2.2666560943444347 2.0 100.04690496095859 1 2.0 2.5535501744863653 1.4847743873238117 2.0 10.443236834283452 1.5232538292537832 2.0 22.861591844409983 1.4514844126732673 2.0 25.921563511547607 1.0766844426051219 2.0 30.280025515984299 1.3319916687270799 2.0 34.909162162045909 2.3474534312211404 2.0 38.312841739647709 1.5159887602900195 2.0 45.560506653815651 3.1158191314479433 2.0 51.097026784465868 3.2610965878691394 2.0 56.159260300843869 3.3488402156686328 2.0 65.939529755242006 2.2596251831396419 2.0 80.276635605486106 1.8995327081668343 2.0 88.157449100170027 1 2.0 89.658073514800293 2.5032211616011906 2.0 94.166357128144483 2.7638380219008938 2.0 98.33531604199905 1.2664253648337187 2.0 99.38471058351962 2.6972515432827877 2.0 37.959853427093364 4.9757826457987457 2.0 41.174094641873275 1.2085543225292843 2.0 59.794056855151048 1 2.0 81.624547501481288 3.2674234618028426 2.0 86.9724221835626 3.5131981437314326 2.0 93.429491044296384 1 2.0 96.678872940969342 1 2.0 </DataArray>
<DataArray Name="forces" NumberOfComponents="3" format="ascii" type="Float32">-0.20401199252754276 -0.082151162841609129 0.0 0.066503680220540762 0.047767220932715071 0.0 -0.031983843872258833 -0.012566370614359173 0.0 0.00097256637448571036 -0.0062685070060596792 0.0 0.0 0.0 0.0 0.0 0.0 0.0 0.0 0.0 0.0 -0.0086983482512880544 -0.0097384187125390403 0.0 0.002781266217224675 -0.013706362597532971 0.0 0.0 0.0 0.0 0.0 0.0 0.0 0.0078090416688898975 -0.083142458973640351 0.0 -0.0055078588979202217 -0.038034858496998218 0.0 0.031668346472655762 0.0043845757550705512 0.0 0.0055569550723161311 -0.021556150419159543 0.0 0.0 0.0 0.0 0.0 0.0 0.0 0.0 0.0 0.0 0.0 0.0 0.0 0.0 0.0 0.0 0.0079186438284778587 -0.11408151329631086 0.0 0.0035946410553956282 -0.058100487268641025 0.0 0.034440867741910963 -0.047020594784952879 0.0 0.0 0.0 0.0 0.0 0.0 0.0 0.0 0.0 0.0 -0.025268726054266027 -0.027583185680886833 0.0 0.019843741462971114 -0.017189703363990293 0.0 0.0 0.0 0.0 -0.046757403283043293 -0.063946717256439023 0.0 0.0016175280749355042 -0.013744893512852886 0.0 -0.022401593710617326 0.05699973370963652 0.0 0.0051150241834965228 -0.022210802350026079 0.0 0.0 0.0 0.0 0.078635359181222247 -0.011849918939939381 0.0 -0.0080550519697217202 -0.038062121642369232 0.0 0.0 0.0 0.0 0.0 0.0 0.0 -0.018057341653639515 -0.032979368003815179 0.0 -0.002425766573190177 -0.016033044615526643 0.0 -0.0055569550723161311 -0.003576590809558803 0.0 0.0 0.0 0.0 0.0 0.0 0.0 -0.034029383325932916 0.063328942934905069 0.0 0.0024531239955800227 0.083137918292011531 0.0 0.0 0.0 0.0 0.040651527315149302 0.016341561835895808 0.0 0.0 0.0 0.0 -0.10136750446375828 0.0023118058191647101 0.0 0.015743754194176035 0.10218480892732509 0.0 0.1091579107313578 -0.054287028042307707 0.0 0.058872953125779753 -0.0291643628373216 0.0 0.039066329467494845 -0.018501224423366956 0.0 -0.0024878234457601945 -0.032828788250379694 0.0 0.0084049054798235739 -0.019124654125703335 0.0 -0.040281469728975138 -0.0047197438392623439 0.0 -0.0083845388105736052 0.052588207061495411 0.0 0.02435594395872473 -0.054027401086913181 0.0 0.0 0.0 0.0 0.0 0.0 0.0 0.0 0.0 0.0 0.025439192930598029 0.022967341528660701 0.0 0.0054249845912949131 -0.0054925934125595677 0.0 0.032550830076627756 -0.029738222491448307 0.0 -0.0016175280749355042 -0.01138784771586546 0.0 -0.10208391278089898 -0.011799672545337791 0.0 0.067636240998250316 0.0059246804501754489 0.0 -0.0042069102247600113 0.00022033722512313468 0.0 0.002425766573190177 -0.0090996966131917031 0.0 0.0083978769908380942 -0.019998141016965107 0.0 -0.039817086226029585 -0.10102805477798257 0.0 0.0 0.0 0.0 -0.026444954108733765 0.0019451542258364842 0.0 0.021489385893166419 -0.051259035621327734 0.0 0.010917605179587508 -0.27941223985960906 0.0 </DataArray>
<DataArray Name="radii" format="ascii" type="Float32">1 1 1 1 1 1 1 1 1 1 1 1 1 1 1 1 1 1 1 1 1 1 1 1 1 1 1 1 1 1 1 1 1 1 1 1 1 1 1 1 1 1 1 1 1 1 1 1 1 1 1 1 1 1 1 1 1 1 1 1 1 1 1 1 1 1 1 1 1 1 1 1 1 1 1 </DataArray>
</PointData>
<CellData/>
</Piece>
</UnstructuredGrid>
</VTKFile>
