<?xml version="1.0" ?>
<VTKFile byte_order="LittleEndian" type="UnstructuredGrid" version="0.1">
<UnstructuredGrid>
<Piece NumberOfCells="0" NumberOfPoints="75">
<Points>
<DataArray NumberOfComponents="3" format="ascii" type="Float32">0.95968622740363663 1 2 2.717320462597578 1 2 4.9692449536959256 1.5283265015266447 2.1999999999999997 10.067993683871789 1 2 11.991562510664465 1 2 13.928730319718055 1 2 15.855397241344434 1 2 18.279599756408043 1.5119744955224257 2.1999999999999997 23.658067498771111 1 2 25.534005262292478 1 2 27.349861326243616 1 2 29.636199996879309 1.4812828601052528 2.1999999999999997 32.07484936744234 1 2 39.740068593809887 1.5482953920895577 2.1999999999999997 41.801464932506114 1 2 43.500265801279483 1 2 45.146524310510202 1 2 46.786052366345821 1 2 46.595156005621106 3.2925748094151284 2.1999999999999997 54.063088725558245 1.485351385970533 2.1999999999999997 59.171554823131459 1.4828241577124868 2.1999999999999997 63.737742348220458 1.4511152532828901 2.1999999999999997 66.401182272465064 1.4845223589230927 2.1999999999999997 69.111535622571992 1.3935503223550552 2.1999999999999997 71.584613457409361 1 2 74.208956789608138 1 2 78.337169562686611 3.9433299566468882 2.1999999999999997 81.574803682900139 1 2 83.340630615028005 1 2 82.492338307427261 5.4681327595286895 2.1999999999999997 88.192835011133027 1.4808451952519073 2.1999999999999997 93.630256943065135 1.5011839867161858 2.1999999999999997 97.531850265406845 1 2 99.777257692064197 1.5301460125432347 2.1999999999999997 8.1709278617308847 1 2 21.176527640637122 1.5037883938398127 2.1999999999999997 31.949381724560091 3.2951127482285751 2.1999999999999997 34.386970866686916 1.4914229275976838 2.1999999999999997 50.214515773849726 3.5679930630408663 2 51.501800600825632 1.4681430799570536 2.1999999999999997 59.277692468161582 4.3841809065157973 2.1999999999999997 61.817490848143152 3.1969359596172384 2.1999999999999997 65.826399251623428 5.2661948406336068 2 73.253841743368596 2.528394545053525 2.1999999999999997 75.406554402948018 4.1987761988072032 2.1999999999999997 85.747782390616337 1.4453555954522117 2.1999999999999997 89.719771856144419 3.7456450726756607 2.1999999999999997 96.270264876243445 3.1502394312780218 2.1999999999999997 104.06340975200891 1 2 7.5333538977204446 3.0814312816815534 2 16.806279759486621 3.426288841297179 2 28.99035773415131 3.8496426987047991 2 42.412119103759053 3.1937127024637286 2 48.905199116634677 1.4920392033417704 2 55.181878737619243 3.6886996277396431 2 56.590429160216154 1.4993963107778103 2 65.031780410193861 3.5924872792889051 2 67.889834428608168 4.1049184609624456 2 70.740188840064931 3.2566108893749233 2 79.134953730003488 1.3939346719327481 2 81.289919449422825 2.9559198756245118 2 91.046012921631416 1.4480529625213905 2 93.475267486323744 3.8790739266598515 2 102.48917768496553 2.6136464722173893 2 23.396731105717148 3.390011571478099 2 34.344992837250587 3.9558656659672202 2 37.083108222747434 1.5356601824544809 2 52.698223135368224 4.2188073898957983 2 56.975410335485087 3.9783936807051772 2 61.323706642889306 1 2 72.295552937105057 4.9396862990694625 2 76.353675824816634 1.4752544012872697 2 84.156339859891617 3.2171890920295092 2 91.804814668871458 5.6105798401928437 2 95.75531628326199 1 2 </DataArray>
</Points>
<Cells>
<DataArray Name="connectivity" format="ascii" type="Int32">0</DataArray>
<DataArray Name="offsets" format="ascii" type="Int32">0</DataArray>
<DataArray Name="types" format="ascii" type="UInt8">1</DataArray>
</Cells>
<PointData>
<DataArray Name="Points" NumberOfComponents="3" format="ascii" type="Float32">0.95968622740363663 1 2 2.717320462597578 1 2 4.9692449536959256 1.5283265015266447 2.1999999999999997 10.067993683871789 1 2 11.991562510664465 1 2 13.928730319718055 1 2 15.855397241344434 1 2 18.279599756408043 1.5119744955224257 2.1999999999999997 23.658067498771111 1 2 25.534005262292478 1 2 27.349861326243616 1 2 29.636199996879309 1.4812828601052528 2.1999999999999997 32.07484936744234 1 2 39.740068593809887 1.5482953920895577 2.1999999999999997 41.801464932506114 1 2 43.500265801279483 1 2 45.146524310510202 1 2 46.786052366345821 1 2 46.595156005621106 3.2925748094151284 2.1999999999999997 54.063088725558245 1.485351385970533 2.1999999999999997 59.171554823131459 1.4828241577124868 2.1999999999999997 63.737742348220458 1.4511152532828901 2.1999999999999997 66.401182272465064 1.4845223589230927 2.1999999999999997 69.111535622571992 1.3935503223550552 2.1999999999999997 71.584613457409361 1 2 74.208956789608138 1 2 78.337169562686611 3.9433299566468882 2.1999999999999997 81.574803682900139 1 2 83.340630615028005 1 2 82.492338307427261 5.4681327595286895 2.1999999999999997 88.192835011133027 1.4808451952519073 2.1999999999999997 93.630256943065135 1.5011839867161858 2.1999999999999997 97.531850265406845 1 2 99.777257692064197 1.5301460125432347 2.1999999999999997 8.1709278617308847 1 2 21.176527640637122 1.5037883938398127 2.1999999999999997 31.949381724560091 3.2951127482285751 2.1999999999999997 34.386970866686916 1.4914229275976838 2.1999999999999997 50.214515773849726 3.5679930630408663 2 51.501800600825632 1.4681430799570536 2.1999999999999997 59.277692468161582 4.3841809065157973 2.1999999999999997 61.817490848143152 3.1969359596172384 2.1999999999999997 65.826399251623428 5.2661948406336068 2 73.253841743368596 2.528394545053525 2.1999999999999997 75.406554402948018 4.1987761988072032 2.1999999999999997 85.747782390616337 1.4453555954522117 2.1999999999999997 89.719771856144419 3.7456450726756607 2.1999999999999997 96.270264876243445 3.1502394312780218 2.1999999999999997 104.06340975200891 1 2 7.5333538977204446 3.0814312816815534 2 16.806279759486621 3.426288841297179 2 28.99035773415131 3.8496426987047991 2 42.412119103759053 3.1937127024637286 2 48.905199116634677 1.4920392033417704 2 55.181878737619243 3.6886996277396431 2 56.590429160216154 1.4993963107778103 2 65.031780410193861 3.5924872792889051 2 67.889834428608168 4.1049184609624456 2 70.740188840064931 3.2566108893749233 2 79.134953730003488 1.3939346719327481 2 81.289919449422825 2.9559198756245118 2 91.046012921631416 1.4480529625213905 2 93.475267486323744 3.8790739266598515 2 102.48917768496553 2.6136464722173893 2 23.396731105717148 3.390011571478099 2 34.344992837250587 3.9558656659672202 2 37.083108222747434 1.5356601824544809 2 52.698223135368224 4.2188073898957983 2 56.975410335485087 3.9783936807051772 2 61.323706642889306 1 2 72.295552937105057 4.9396862990694625 2 76.353675824816634 1.4752544012872697 2 84.156339859891617 3.2171890920295092 2 91.804814668871458 5.6105798401928437 2 95.75531628326199 1 2 </DataArray>
<DataArray Name="forces" NumberOfComponents="3" format="ascii" type="Float32">-0.28393970079537478 0.0 0.0 0.0088756371260705347 -0.064663751823039517 0.0 0.047179804187334751 -0.051652897614608298 0.0 0.029065166005615595 0.0 0.0 0.015179202548852189 0.0 0.0 -0.0098366365521744825 0.0 0.0 -0.039530956047450744 -0.022889420046226041 0.0 -0.061177065797286934 -0.16682405112408974 0.0 -0.044914525672825917 -0.19476282057107397 0.0 -0.061831766479290451 0.0 0.0 -0.066422860598719546 -0.052455307529165086 0.0 -0.059511160690465373 -0.38299270059598145 0.0 -0.1380790986194558 -0.37207147959678688 0.0 0.040847362873360438 0.088992853117253967 0.0 0.03748581056305951 -0.44360698046816938 0.0 0.016178759019574732 -0.1361471262635795 0.0 -0.0067344376163092079 0.0 0.0 -0.02961957241365365 -0.38718598117691133 0.0 -0.24193970293256242 0.46759762483171685 0.0 -0.02212420990086332 -0.35433708385595625 0.0 0.16128298445957084 -0.37213696685415448 0.0 -0.019904562391772879 -0.59547048928169843 0.0 0.01007222103092803 -0.36017612289004303 0.0 0.029566279043967914 -1.0009142920140253 0.0 -0.15153765986998907 -0.43679505405885816 0.0 0.020878113157264344 -0.74945825952602463 0.0 0.051444173434240757 0.54059479159528101 0.0 -0.019710149710946492 -0.64877937737937152 0.0 0.0097922381702738037 -0.26578787956074296 0.0 -0.058719846110953655 0.70432431030031739 0.0 0.088215924668002543 -0.38607528055573376 0.0 0.14417092748340188 -0.24282422785153421 0.0 -0.0081428920767304402 -0.14723465474444442 0.0 -0.026690622847041934 -0.038837639196171739 0.0 0.024905204178146428 -0.41190950592621117 0.0 -0.003646851713386523 -0.22448075534063744 0.0 0.018915801980663102 0.57925327452914044 0.0 -0.11030489449742897 -0.31157374016592942 0.0 -0.02173690276271438 0.23602263740608936 0.0 -0.048600142561440074 -0.47553936649976336 0.0 -0.096491254321080522 0.65218419583855025 0.0 -0.020412036188857785 0.6915831928273668 0.0 -0.14451944998275396 0.25337952679051329 0.0 0.0089288358428173398 0.44111634209482098 0.0 0.01952732803778956 0.63182618063524676 0.0 -0.0020974324363837171 -0.63603715957328177 0.0 -0.25166526001345557 0.68086485236899597 0.0 0.16714481576377183 0.54112628556245423 0.0 0.24620432646355561 -0.25923377409842691 0.0 0.080613166110781648 0.53199540779721 0.0 -0.15950183472926505 0.19926043165020763 0.0 -0.071994321947896608 0.2503026178322646 0.0 0.099553262258582423 0.50400554192799074 0.0 -0.079238820114171826 -0.3072331602818435 0.0 -0.01469363430789597 0.15296623063826492 0.0 0.069019529667641133 -0.25541526407490234 0.0 -0.04937024424624599 0.1947606306747956 0.0 -0.04521868121519329 0.57716044832012892 0.0 -0.0019109111438698478 0.68092438005165945 0.0 0.0038252736753363603 -0.99820722450179811 0.0 0.049057044000796746 0.55265971335065966 0.0 0.1011400358609571 -0.6170389475670216 0.0 0.10810181886600549 0.17232796402251163 0.0 0.035281590906560301 0.36607603953445056 0.0 0.25907325143098869 0.41629856669896431 0.0 0.10542296848422941 0.2795389242685038 0.0 -0.040558912749874998 0.0 0.0 -0.0070849345657540488 0.53964875338283402 0.0 -0.036453544298807324 0.17346022318116097 0.0 0.18625648149475621 -0.46852866677317356 0.0 0.20650909333509332 0.23113641947777119 0.0 0.0054256450920254773 -0.42545260158747894 0.0 -0.015328011057120394 0.60233958130869103 0.0 0.17308443373470445 0.41550167523405213 0.0 0.050143817689226489 -0.48347421122536616 0.0 </DataArray>
<DataArray Name="radii" format="ascii" type="Float32">1 1 1.5999999999999999 1 1 1 1 1.5999999999999999 1 1 1 1.5999999999999999 1 1.5999999999999999 1 1 1 1 1.5999999999999999 1.5999999999999999 1.5999999999999999 1.5999999999999999 1.5999999999999999 1.5999999999999999 1 1 1.5999999999999999 1 1 1.5999999999999999 1.5999999999999999 1.5999999999999999 1 1.5999999999999999 1 1.5999999999999999 1.5999999999999999 1.5999999999999999 1 1.5999999999999999 1.5999999999999999 1.5999999999999999 1 1.5999999999999999 1.5999999999999999 1.5999999999999999 1.5999999999999999 1.5999999999999999 1 1.5999999999999999 1 1 1.5999999999999999 1.5999999999999999 1 1.5999999999999999 1 1.5999999999999999 1.5999999999999999 1.5999999999999999 1.5999999999999999 1.5999999999999999 1 1.5999999999999999 1.5999999999999999 1 1.5999999999999999 1.5999999999999999 1 1 1 1.5999999999999999 1.5999999999999999 1.5999999999999999 1 </DataArray>
</PointData>
<CellData/>
</Piece>
</UnstructuredGrid>
</VTKFile>
