<?xml version="1.0" ?>
<VTKFile byte_order="LittleEndian" type="UnstructuredGrid" version="0.1">
<UnstructuredGrid>
<Piece NumberOfCells="0" NumberOfPoints="34">
<Points>
<DataArray NumberOfComponents="3" format="ascii" type="Float32">1.9613306788245446 2.1474385273499919 2.0 4.2948770546999837 0.9806653394122723 2.0 7.0 1.0 2.0 9.9789052432084695 0.99658372608904111 2.0 12.672576079145776 2.0077318983145425 2.0 16.327423920854226 2.007731898314542 2.0 19.021094756791534 0.99658372608904111 2.0 22.0 2.0 2.0 25.0 1.0 2.0 27.96923042372654 0.99497826734261385 2.0 30.596880759453857 2.0116362113325468 2.0 33.99995443179079 1.9997718733991845 2.0 37.401801428609254 2.0121850630338072 2.0 40.009024208102709 0.99068559029864889 2.0 42.674515333425134 2.0085113912058588 2.0 46.327497663163797 2.0077289633495883 2.0 49.021095751727913 0.99658334403879623 2.0 52.0 2.0 2.0 55.0 1.0 2.0 58.0 2.0 2.0 61.0 1.0 2.0 64.0 2.0 2.0 67.0 1.0 2.0 70.0 2.0 2.0 73.0 1.0 2.0 76.0 1.0 2.0 79.0 1.0 2.0 81.968312774639543 0.99477401971216051 2.0 84.585310305617327 2.0120206444837105 2.0 87.913323645594517 1.9998721920539322 2.0 90.980058678238905 2.0 2.0 93.944384276805806 2.0 2.0 96.80861031910392 2.0 2.0 99.799999999999955 2.0 2.0 </DataArray>
</Points>
<Cells>
<DataArray Name="connectivity" format="ascii" type="Int32">0</DataArray>
<DataArray Name="offsets" format="ascii" type="Int32">0</DataArray>
<DataArray Name="types" format="ascii" type="UInt8">1</DataArray>
</Cells>
<PointData>
<DataArray Name="Points" NumberOfComponents="3" format="ascii" type="Float32">1.9613306788245446 2.1474385273499919 2.0 4.2948770546999837 0.9806653394122723 2.0 7.0 1.0 2.0 9.9789052432084695 0.99658372608904111 2.0 12.672576079145776 2.0077318983145425 2.0 16.327423920854226 2.007731898314542 2.0 19.021094756791534 0.99658372608904111 2.0 22.0 2.0 2.0 25.0 1.0 2.0 27.96923042372654 0.99497826734261385 2.0 30.596880759453857 2.0116362113325468 2.0 33.99995443179079 1.9997718733991845 2.0 37.401801428609254 2.0121850630338072 2.0 40.009024208102709 0.99068559029864889 2.0 42.674515333425134 2.0085113912058588 2.0 46.327497663163797 2.0077289633495883 2.0 49.021095751727913 0.99658334403879623 2.0 52.0 2.0 2.0 55.0 1.0 2.0 58.0 2.0 2.0 61.0 1.0 2.0 64.0 2.0 2.0 67.0 1.0 2.0 70.0 2.0 2.0 73.0 1.0 2.0 76.0 1.0 2.0 79.0 1.0 2.0 81.968312774639543 0.99477401971216051 2.0 84.585310305617327 2.0120206444837105 2.0 87.913323645594517 1.9998721920539322 2.0 90.980058678238905 2.0 2.0 93.944384276805806 2.0 2.0 96.80861031910392 2.0 2.0 99.799999999999955 2.0 2.0 </DataArray>
<DataArray Name="forces" NumberOfComponents="3" format="ascii" type="Float32">-0.42707383947521949 0.21353691973760974 0.0 0.42707383947521949 -0.21353691973760974 0.0 0.0 0.0 0.0 -0.10186011589204885 -0.03773019984582214 0.0 -0.29709239308959684 0.037730199845822189 0.0 0.2970923930895964 0.037730199845822231 0.0 0.10186011589204928 -0.037730199845822279 0.0 0.0 0.0 0.0 0.0 0.0 0.0 -0.14653099792594318 -0.055461295456339259 0.0 -0.49518523149496108 0.056703726883826508 0.0 -0.00043134120152699129 -0.0025194883265370026 0.0 0.48554323604582583 0.060823178766909104 0.0 0.040385734652426439 -0.10287071488925362 0.0 -0.28342314132984153 0.043354654500521686 0.0 0.2977706370309316 0.0377043578269807 0.0 0.10187110422308888 -0.037734419306108109 0.0 0.0 0.0 0.0 0.0 0.0 0.0 0.0 0.0 0.0 0.0 0.0 0.0 0.0 0.0 0.0 0.0 0.0 0.0 0.0 0.0 0.0 0.0 0.0 0.0 0.0 0.0 0.0 0.0 0.0 0.0 -0.15209427216294713 -0.057717058347693154 0.0 -0.54682664906503675 0.059128601881001733 0.0 -0.24926770869727122 -0.0014115435333085767 0.0 -0.084446975389582235 0.0 0.0 -0.11800821427767971 0.0 0.0 0.046218330617818992 0.0 0.0 1.1044254889746981 0.0 0.0 </DataArray>
<DataArray Name="radii" format="ascii" type="Float32">2 1 1 1 2 2 1 2 1 1 2 2 2 1 2 2 1 2 1 2 1 2 1 2 1 1 1 1 2 2 2 2 2 2 </DataArray>
</PointData>
<CellData/>
</Piece>
</UnstructuredGrid>
</VTKFile>
