<?xml version="1.0" ?>
<VTKFile byte_order="LittleEndian" type="UnstructuredGrid" version="0.1">
<UnstructuredGrid>
<Piece NumberOfCells="0" NumberOfPoints="34">
<Points>
<DataArray NumberOfComponents="3" format="ascii" type="Float32">1.9640235751350097 2.0526139678209958 2.0 4.1052279356419916 0.98201178756750485 2.0 7.0 1.0 2.0 10.0 1.0 2.0 12.854320472491494 2.0 2.0 16.145679527508506 2.0 2.0 19.0 1.0 2.0 22.0 2.0 2.0 25.0 1.0 2.0 28.0 1.0 2.0 30.845996233763454 2.0 2.0 34.0 2.0 2.0 37.154003766236542 2.0 2.0 40.0 1.0 2.0 42.854320472491494 2.0 2.0 46.145679527508506 2.0 2.0 49.0 1.0 2.0 52.0 2.0 2.0 55.0 1.0 2.0 58.0 2.0 2.0 61.0 1.0 2.0 64.0 2.0 2.0 67.0 1.0 2.0 70.0 2.0 2.0 73.0 1.0 2.0 76.0 1.0 2.0 79.0 1.0 2.0 82.0 1.0 2.0 84.845837880635983 2.0 2.0 87.991675761271964 2.0 2.0 90.999683293745051 2.0 2.0 93.992150820654388 2.0 2.0 96.870652243692632 2.0 2.0 99.299999999999983 2.0 2.0 </DataArray>
</Points>
<Cells>
<DataArray Name="connectivity" format="ascii" type="Int32">0</DataArray>
<DataArray Name="offsets" format="ascii" type="Int32">0</DataArray>
<DataArray Name="types" format="ascii" type="UInt8">1</DataArray>
</Cells>
<PointData>
<DataArray Name="Points" NumberOfComponents="3" format="ascii" type="Float32">1.9640235751350097 2.0526139678209958 2.0 4.1052279356419916 0.98201178756750485 2.0 7.0 1.0 2.0 10.0 1.0 2.0 12.854320472491494 2.0 2.0 16.145679527508506 2.0 2.0 19.0 1.0 2.0 22.0 2.0 2.0 25.0 1.0 2.0 28.0 1.0 2.0 30.845996233763454 2.0 2.0 34.0 2.0 2.0 37.154003766236542 2.0 2.0 40.0 1.0 2.0 42.854320472491494 2.0 2.0 46.145679527508506 2.0 2.0 49.0 1.0 2.0 52.0 2.0 2.0 55.0 1.0 2.0 58.0 2.0 2.0 61.0 1.0 2.0 64.0 2.0 2.0 67.0 1.0 2.0 70.0 2.0 2.0 73.0 1.0 2.0 76.0 1.0 2.0 79.0 1.0 2.0 82.0 1.0 2.0 84.845837880635983 2.0 2.0 87.991675761271964 2.0 2.0 90.999683293745051 2.0 2.0 93.992150820654388 2.0 2.0 96.870652243692632 2.0 2.0 99.299999999999983 2.0 2.0 </DataArray>
<DataArray Name="forces" NumberOfComponents="3" format="ascii" type="Float32">-0.61403006222274625 0.30701503111137313 0.0 0.61403006222274625 -0.30701503111137313 0.0 0.0 0.0 0.0 0.0 0.0 0.0 -0.80270270270270316 0.0 0.0 0.80270270270270316 0.0 0.0 0.0 0.0 0.0 0.0 0.0 0.0 0.0 0.0 0.0 0.0 0.0 0.0 -0.89864864864864913 0.0 0.0 -3.5527136788005009e-15 0.0 0.0 0.89864864864865268 0.0 0.0 0.0 0.0 0.0 -0.80270270270270316 0.0 0.0 0.80270270270270316 0.0 0.0 0.0 0.0 0.0 0.0 0.0 0.0 0.0 0.0 0.0 0.0 0.0 0.0 0.0 0.0 0.0 0.0 0.0 0.0 0.0 0.0 0.0 0.0 0.0 0.0 0.0 0.0 0.0 0.0 0.0 0.0 0.0 0.0 0.0 0.0 0.0 0.0 -0.90135135135135158 0.0 0.0 -0.095945945945942412 0.0 0.0 -0.0054054054054120115 0.0 0.0 -0.087837837837824395 0.0 0.0 -0.61621621621624456 0.0 0.0 1.706756756756775 0.0 0.0 </DataArray>
<DataArray Name="radii" format="ascii" type="Float32">2 1 1 1 2 2 1 2 1 1 2 2 2 1 2 2 1 2 1 2 1 2 1 2 1 1 1 1 2 2 2 2 2 2 </DataArray>
</PointData>
<CellData/>
</Piece>
</UnstructuredGrid>
</VTKFile>
