<?xml version="1.0" ?>
<VTKFile byte_order="LittleEndian" type="UnstructuredGrid" version="0.1">
<UnstructuredGrid>
<Piece NumberOfCells="0" NumberOfPoints="245">
<Points>
<DataArray NumberOfComponents="3" format="ascii" type="Float32">0.9130129467844279 1 2.0 3.3606719742358777 4.5981302838453697 2.0 7.0297754310609646 1 2.0 11.573254141802693 4.0001869929826244 2.0 13.300843422204501 1.0 2.0 16.0 1.0 2.0 18.04176113211064 1 2.0 21.35533068301212 1.3751223675815365 2.0 24.435237629963908 4.7844526516345054 2.0 27.466061263832831 1 2.0 29.944116839819873 5.1172218369437399 2.0 34.029592425352703 1 2.0 35.049235716000915 1.5284393907687923 2.0 39.598567946721985 4.1063368964605527 2.0 44.196109049584344 1 2.0 45.069673051065841 2.0512229342930919 2.0 49.051501849867741 1 2.0 53.628105183455283 4.8963888903707566 2.0 55.042416718592399 1 2.0 56.2141302016149 2.061793028921616 2.0 61.48488802963255 1 2.0 64.61934506984592 2.8398049758611115 2.0 68.436427499965703 1 2.0 70.150345767011373 1 2.0 73.0 1.0 2.0 76.0 1.0 2.0 77.995318824550793 1 2.0 80.74505401263032 3.1735247388452859 2.0 84.916581543091084 1 2.0 86.128551903948193 2.0853017421725784 2.0 90.923653151728132 2.2710148647693562 2.0 94.033951573078525 6.028772077412559 2.0 98.753973261159302 4.1492030552131274 2.0 104.00084651151636 1.8288426420285635 2.0 6.8170822680952359 2.7210398802809461 2.0 8.764639637652115 1 2.0 21.656598496009718 5.2497373898282245 2.0 26.022895998300431 4.9833524074931139 2.0 32.253847359705958 1 2.0 36.154179097472252 5.4478090400446524 2.0 44.046907633941373 4.4588386603448065 2.0 48.065927061841236 2.7126119780633124 2.0 50.820845501502696 1 2.0 60.119668244239328 2.5185068363542107 2.0 61.600206927101375 3.33393445060989 2.0 83.768995005240811 5.0799946351606513 2.0 89.7577303879265 5.8073060580474127 2.0 90.446540071023108 4.5210339671984601 2.0 92.927715178402053 3.5147439112790964 2.0 96.053798135366662 3.3671092438151247 2.0 101.23089202317946 1 2.0 2.6133883719635254 1 2.0 11.873877129290083 2.3562658245799284 2.0 22.903030512326506 1 2.0 25.861749982458178 1.2589007500087774 2.0 28.728682148212474 1.2029577171530299 2.0 33.5371355516886 4.5266832724154771 2.0 38.939918395087098 1.7983425708045466 2.0 46.533502345270513 4.484253783042826 2.0 49.199736104427402 4.0343964366213187 2.0 55.643224663854788 4.4237751043738545 2.0 67.120540473955884 4.5885903732735445 2.0 79.530248465112109 1 2.0 88.78228176973515 1.9133631633218742 2.0 90.061738268183589 3.4980205736569441 2.0 93.982166071033816 2.598114341292336 2.0 98.274646347887369 2.3827791719920941 2.0 101.63225726713593 5.1540036161569001 2.0 38.509722693694485 6.6793082767354157 2.0 41.65978296243663 1.4179956933084932 2.0 59.296792792465979 1 2.0 79.485710499248128 4.5640374990231622 2.0 86.207522714757857 4.0455865417711987 2.0 93.505416912279017 1 2.0 97.144008149176145 1 2.0 3.1245967611166243 2.4771893695213594 2.0 9.2295063988141433 4.781419229289865 2.0 18.504516398769532 3.9119530762959656 2.0 24.463955479552791 1 2.0 31.935502398456446 6.6634128180697294 2.0 37.358797165364571 1 2.0 41.155407112768337 5.3190753706010918 2.0 47.38126310748202 1 2.0 53.904142565687174 1.7624323000039979 2.0 58.887629045243273 2.7833457662253069 2.0 65.021350033605529 1.0 2.0 81.921781972909798 2.1819359790549164 2.0 84.297653729979217 2.6122753220210684 2.0 91.562098503293086 3.3893366182155806 2.0 92.1574312800673 6.5568773337523441 2.0 96.904154257726745 7.5880968290715325 2.0 102.60311152730986 1.0873697562736702 2.0 34.840646649900648 4.53391584380923 2.0 42.123847026366029 3.4634710466389813 2.0 58.027672314473598 4.8217839988155742 2.0 86.09922646755966 6.6618826314082265 2.0 87.539241104811822 4.2661552844212691 2.0 91.793607241259934 1 2.0 94.985977205857552 1 2.0 8.7513168731342574 3.0278654442424928 2.0 27.113910198928675 3.9329043945881033 2.0 31.137650695672257 1.7367562525560225 2.0 34.245705477483597 3.0519347351551684 2.0 36.769279353036538 2.7795205475357077 2.0 66.9270043454665 1.4454524368880894 2.0 88.695355237108572 3.9747722444681313 2.0 94.593309527051943 4.2494308077535816 2.0 100.71937563423253 2.9748079293771701 2.0 98.998184983722197 5.5753440568520327 2.0 41.091046569067117 7.7079640010768475 2.0 40.709157430385972 1 2.0 80.767848418851131 5.5782737176119648 2.0 5.245191142459892 3.5161238201941236 2.0 13.485932111569026 6.3860732291426059 2.0 21.11443512515077 3.8928611366620092 2.0 23.318376679887542 2.5734978529210233 2.0 31.516491743317786 5.1716946927871952 2.0 36.104063056985041 1 2.0 40.826710342625844 2.6625591732378506 2.0 46.516271520480025 2.6384147768186712 2.0 51.350711472305598 3.0027345845348385 2.0 57.783735157510833 2.4579196822359322 2.0 62.866355972290791 1.1802378955684161 2.0 81.331471573366656 1 2.0 87.435403374530026 1.5139778259721417 2.0 90.249258533795413 1 2.0 93.695258397794547 7.843417946540634 2.0 97.357988339891946 5.0664459908653185 2.0 103.22851216129874 4.807180995027645 2.0 36.501666182691118 6.9803971287797006 2.0 43.32003375026467 5.8599065110839899 2.0 60.730436995651587 5.0565462119721918 2.0 81.769394022693575 4.0058709588420953 2.0 89.01443862741263 8.66937160142556 2.0 92.574743528093705 5.092400051991782 2.0 96.002412476297422 1.6828278769036948 2.0 10.340077055969601 2.8926452118142145 2.0 24.636929716921856 2.5229052980353024 2.0 30.007089111714276 2.8485504171941129 2.0 33.322420670940936 1.7785286558765354 2.0 37.724229391083583 1.826368442831301 2.0 64.362432611843062 4.8731771630825653 2.0 88.548025602337404 1 2.0 92.189640349639888 2.1297742999929588 2.0 98.508309520976027 1 2.0 102.08806837654122 2.7750113848055262 2.0 37.522153037687403 4.2897835031780405 2.0 43.780947582873054 2.7791382928223141 2.0 77.799691524922295 3.8927789273684303 2.0 5.5156195686051888 1.5212986337596215 2.0 19.795190383615857 1.3754270365317132 2.0 29.195285819026765 6.3542456319816791 2.0 42.310962199565182 4.6673165763702675 2.0 52.365464437677097 1.4668436319694169 2.0 83.758622334622785 1.5322132470491527 2.0 85.531647210736821 2.6802981341856573 2.0 95.645301344458019 5.0374658761486986 2.0 84.088026881967963 7.9728062691222465 2.0 88.024816210053771 6.4486069438315452 2.0 28.671275057423198 4.1859160373126176 2.0 31.607351534826378 2.9058944847789827 2.0 68.424641654307933 2.7728599128223297 2.0 99.607944415051719 1.9685706878243954 2.0 37.345300754444906 8.9029174712077506 2.0 4.7620810858354954 5.5844648299495958 2.0 11.013599837555518 5.6252078810181994 2.0 21.969271637794215 2.7669244604670142 2.0 22.970294337596886 4.3929537116728685 2.0 30.508550854522483 3.907984139517406 2.0 35.456755644592839 2.7109363585387376 2.0 38.921622600802337 5.0086258899601868 2.0 45.859073928148682 1 2.0 52.082897719658781 4.3989407644222274 2.0 56.75375664536746 1 2.0 63.408450218360471 2.2935641752328517 2.0 80.368324829130287 1.8427053607425334 2.0 86.409369965793843 1 2.0 89.936764849535621 1.9310322315250532 2.0 95.245270745095908 7.0064768216433428 2.0 97.727123673673944 3.8517892898073209 2.0 103.68542665906375 3.3288718016912009 2.0 36.061939480287243 4.0287818634375716 2.0 45.213776767994247 3.5744271812062265 2.0 61.081949244812826 1.8709953005999653 2.0 82.883448271178452 6.5865482856318991 2.0 90.787832343491971 6.3952054168866574 2.0 93.660251506141364 4.6249084498437512 2.0 95.043897745978342 3.329917175120928 2.0 11.359118485480998 1 2.0 26.699872426423418 2.2541810065063204 2.0 29.063292939151818 2.5104181936296386 2.0 32.312249179452415 4.1644798483816823 2.0 39.584505924019858 1 2.0 65.687362014814838 4.0128890864925255 2.0 88.90613778836429 2.9335984579489409 2.0 94.907377417364572 2.0471358275444862 2.0 96.98958147438637 3.2389050700957895 2.0 100.26023440404326 4.6482962287777587 2.0 37.633266665589254 5.7306097104426117 2.0 42.488367910254638 2.3504135099828143 2.0 79.189866172705194 2.9443580632799411 2.0 1.7115290748787062 2.3160443060416256 2.0 17.448089876777331 5.0703903059096058 2.0 33.459888824536336 7.3507519989577306 2.0 40.036765737520575 5.9179928206152885 2.0 54.977290587725641 2.8961488435297307 2.0 82.81693284446952 1 2.0 83.330449572087986 3.8565790384784986 2.0 98.388185912794029 6.9123340008631153 2.0 85.263369601139729 5.3258774176453114 2.0 86.951517642576349 5.4441666238052324 2.0 27.857153013957106 2.7009686404284539 2.0 30.087249026836027 1 2.0 66.094336563941596 2.5436134784024187 2.0 99.422655587248912 3.2765245645642236 2.0 39.680162327113564 7.3786979455688693 2.0 12.895853422693879 4.8972983115850344 2.0 19.992201988952523 3.1060463658598079 2.0 39.756605494978857 2.956218878756284 2.0 49.907959857222906 2.5614471124784357 2.0 56.740227855287529 3.3985124247672012 2.0 63.106817241064867 3.7639857869040911 2.0 87.394188272650922 2.8698880225784746 2.0 92.002464118913949 8.1192465253592516 2.0 59.557699871274828 4.0987689939117198 2.0 82.283276615387081 5.2511940524806313 2.0 89.375245501488052 7.2284297903120347 2.0 91.460752902664893 4.9641775884916717 2.0 97.092089746680358 2.0049630216790377 2.0 25.640706875171002 3.3555878510848851 2.0 38.257126602981664 3.146032277609462 2.0 93.170975951211076 1.9415360074257915 2.0 43.022616833966858 1.0730086157379097 2.0 4.293393364210389 2.1532921770802034 2.0 18.557092167927021 2.410117450785163 2.0 29.898205789032833 7.827054166316711 2.0 53.03842509626233 3.0344005772862785 2.0 82.811150404582506 2.7516095749824614 2.0 84.832132305956421 3.920709227848759 2.0 96.592092173697495 6.1266640472348142 2.0 84.434710072583897 6.5265390103919403 2.0 88.887218257141285 5.127478176114983 2.0 32.89527184138602 2.8389234014673437 2.0 100.01255878518357 1 2.0 38.841171546172923 8.5532468819946086 2.0 </DataArray>
</Points>
<Cells>
<DataArray Name="connectivity" format="ascii" type="Int32">0</DataArray>
<DataArray Name="offsets" format="ascii" type="Int32">0</DataArray>
<DataArray Name="types" format="ascii" type="UInt8">1</DataArray>
</Cells>
<PointData>
<DataArray Name="Points" NumberOfComponents="3" format="ascii" type="Float32">0.9130129467844279 1 2.0 3.3606719742358777 4.5981302838453697 2.0 7.0297754310609646 1 2.0 11.573254141802693 4.0001869929826244 2.0 13.300843422204501 1.0 2.0 16.0 1.0 2.0 18.04176113211064 1 2.0 21.35533068301212 1.3751223675815365 2.0 24.435237629963908 4.7844526516345054 2.0 27.466061263832831 1 2.0 29.944116839819873 5.1172218369437399 2.0 34.029592425352703 1 2.0 35.049235716000915 1.5284393907687923 2.0 39.598567946721985 4.1063368964605527 2.0 44.196109049584344 1 2.0 45.069673051065841 2.0512229342930919 2.0 49.051501849867741 1 2.0 53.628105183455283 4.8963888903707566 2.0 55.042416718592399 1 2.0 56.2141302016149 2.061793028921616 2.0 61.48488802963255 1 2.0 64.61934506984592 2.8398049758611115 2.0 68.436427499965703 1 2.0 70.150345767011373 1 2.0 73.0 1.0 2.0 76.0 1.0 2.0 77.995318824550793 1 2.0 80.74505401263032 3.1735247388452859 2.0 84.916581543091084 1 2.0 86.128551903948193 2.0853017421725784 2.0 90.923653151728132 2.2710148647693562 2.0 94.033951573078525 6.028772077412559 2.0 98.753973261159302 4.1492030552131274 2.0 104.00084651151636 1.8288426420285635 2.0 6.8170822680952359 2.7210398802809461 2.0 8.764639637652115 1 2.0 21.656598496009718 5.2497373898282245 2.0 26.022895998300431 4.9833524074931139 2.0 32.253847359705958 1 2.0 36.154179097472252 5.4478090400446524 2.0 44.046907633941373 4.4588386603448065 2.0 48.065927061841236 2.7126119780633124 2.0 50.820845501502696 1 2.0 60.119668244239328 2.5185068363542107 2.0 61.600206927101375 3.33393445060989 2.0 83.768995005240811 5.0799946351606513 2.0 89.7577303879265 5.8073060580474127 2.0 90.446540071023108 4.5210339671984601 2.0 92.927715178402053 3.5147439112790964 2.0 96.053798135366662 3.3671092438151247 2.0 101.23089202317946 1 2.0 2.6133883719635254 1 2.0 11.873877129290083 2.3562658245799284 2.0 22.903030512326506 1 2.0 25.861749982458178 1.2589007500087774 2.0 28.728682148212474 1.2029577171530299 2.0 33.5371355516886 4.5266832724154771 2.0 38.939918395087098 1.7983425708045466 2.0 46.533502345270513 4.484253783042826 2.0 49.199736104427402 4.0343964366213187 2.0 55.643224663854788 4.4237751043738545 2.0 67.120540473955884 4.5885903732735445 2.0 79.530248465112109 1 2.0 88.78228176973515 1.9133631633218742 2.0 90.061738268183589 3.4980205736569441 2.0 93.982166071033816 2.598114341292336 2.0 98.274646347887369 2.3827791719920941 2.0 101.63225726713593 5.1540036161569001 2.0 38.509722693694485 6.6793082767354157 2.0 41.65978296243663 1.4179956933084932 2.0 59.296792792465979 1 2.0 79.485710499248128 4.5640374990231622 2.0 86.207522714757857 4.0455865417711987 2.0 93.505416912279017 1 2.0 97.144008149176145 1 2.0 3.1245967611166243 2.4771893695213594 2.0 9.2295063988141433 4.781419229289865 2.0 18.504516398769532 3.9119530762959656 2.0 24.463955479552791 1 2.0 31.935502398456446 6.6634128180697294 2.0 37.358797165364571 1 2.0 41.155407112768337 5.3190753706010918 2.0 47.38126310748202 1 2.0 53.904142565687174 1.7624323000039979 2.0 58.887629045243273 2.7833457662253069 2.0 65.021350033605529 1.0 2.0 81.921781972909798 2.1819359790549164 2.0 84.297653729979217 2.6122753220210684 2.0 91.562098503293086 3.3893366182155806 2.0 92.1574312800673 6.5568773337523441 2.0 96.904154257726745 7.5880968290715325 2.0 102.60311152730986 1.0873697562736702 2.0 34.840646649900648 4.53391584380923 2.0 42.123847026366029 3.4634710466389813 2.0 58.027672314473598 4.8217839988155742 2.0 86.09922646755966 6.6618826314082265 2.0 87.539241104811822 4.2661552844212691 2.0 91.793607241259934 1 2.0 94.985977205857552 1 2.0 8.7513168731342574 3.0278654442424928 2.0 27.113910198928675 3.9329043945881033 2.0 31.137650695672257 1.7367562525560225 2.0 34.245705477483597 3.0519347351551684 2.0 36.769279353036538 2.7795205475357077 2.0 66.9270043454665 1.4454524368880894 2.0 88.695355237108572 3.9747722444681313 2.0 94.593309527051943 4.2494308077535816 2.0 100.71937563423253 2.9748079293771701 2.0 98.998184983722197 5.5753440568520327 2.0 41.091046569067117 7.7079640010768475 2.0 40.709157430385972 1 2.0 80.767848418851131 5.5782737176119648 2.0 5.245191142459892 3.5161238201941236 2.0 13.485932111569026 6.3860732291426059 2.0 21.11443512515077 3.8928611366620092 2.0 23.318376679887542 2.5734978529210233 2.0 31.516491743317786 5.1716946927871952 2.0 36.104063056985041 1 2.0 40.826710342625844 2.6625591732378506 2.0 46.516271520480025 2.6384147768186712 2.0 51.350711472305598 3.0027345845348385 2.0 57.783735157510833 2.4579196822359322 2.0 62.866355972290791 1.1802378955684161 2.0 81.331471573366656 1 2.0 87.435403374530026 1.5139778259721417 2.0 90.249258533795413 1 2.0 93.695258397794547 7.843417946540634 2.0 97.357988339891946 5.0664459908653185 2.0 103.22851216129874 4.807180995027645 2.0 36.501666182691118 6.9803971287797006 2.0 43.32003375026467 5.8599065110839899 2.0 60.730436995651587 5.0565462119721918 2.0 81.769394022693575 4.0058709588420953 2.0 89.01443862741263 8.66937160142556 2.0 92.574743528093705 5.092400051991782 2.0 96.002412476297422 1.6828278769036948 2.0 10.340077055969601 2.8926452118142145 2.0 24.636929716921856 2.5229052980353024 2.0 30.007089111714276 2.8485504171941129 2.0 33.322420670940936 1.7785286558765354 2.0 37.724229391083583 1.826368442831301 2.0 64.362432611843062 4.8731771630825653 2.0 88.548025602337404 1 2.0 92.189640349639888 2.1297742999929588 2.0 98.508309520976027 1 2.0 102.08806837654122 2.7750113848055262 2.0 37.522153037687403 4.2897835031780405 2.0 43.780947582873054 2.7791382928223141 2.0 77.799691524922295 3.8927789273684303 2.0 5.5156195686051888 1.5212986337596215 2.0 19.795190383615857 1.3754270365317132 2.0 29.195285819026765 6.3542456319816791 2.0 42.310962199565182 4.6673165763702675 2.0 52.365464437677097 1.4668436319694169 2.0 83.758622334622785 1.5322132470491527 2.0 85.531647210736821 2.6802981341856573 2.0 95.645301344458019 5.0374658761486986 2.0 84.088026881967963 7.9728062691222465 2.0 88.024816210053771 6.4486069438315452 2.0 28.671275057423198 4.1859160373126176 2.0 31.607351534826378 2.9058944847789827 2.0 68.424641654307933 2.7728599128223297 2.0 99.607944415051719 1.9685706878243954 2.0 37.345300754444906 8.9029174712077506 2.0 4.7620810858354954 5.5844648299495958 2.0 11.013599837555518 5.6252078810181994 2.0 21.969271637794215 2.7669244604670142 2.0 22.970294337596886 4.3929537116728685 2.0 30.508550854522483 3.907984139517406 2.0 35.456755644592839 2.7109363585387376 2.0 38.921622600802337 5.0086258899601868 2.0 45.859073928148682 1 2.0 52.082897719658781 4.3989407644222274 2.0 56.75375664536746 1 2.0 63.408450218360471 2.2935641752328517 2.0 80.368324829130287 1.8427053607425334 2.0 86.409369965793843 1 2.0 89.936764849535621 1.9310322315250532 2.0 95.245270745095908 7.0064768216433428 2.0 97.727123673673944 3.8517892898073209 2.0 103.68542665906375 3.3288718016912009 2.0 36.061939480287243 4.0287818634375716 2.0 45.213776767994247 3.5744271812062265 2.0 61.081949244812826 1.8709953005999653 2.0 82.883448271178452 6.5865482856318991 2.0 90.787832343491971 6.3952054168866574 2.0 93.660251506141364 4.6249084498437512 2.0 95.043897745978342 3.329917175120928 2.0 11.359118485480998 1 2.0 26.699872426423418 2.2541810065063204 2.0 29.063292939151818 2.5104181936296386 2.0 32.312249179452415 4.1644798483816823 2.0 39.584505924019858 1 2.0 65.687362014814838 4.0128890864925255 2.0 88.90613778836429 2.9335984579489409 2.0 94.907377417364572 2.0471358275444862 2.0 96.98958147438637 3.2389050700957895 2.0 100.26023440404326 4.6482962287777587 2.0 37.633266665589254 5.7306097104426117 2.0 42.488367910254638 2.3504135099828143 2.0 79.189866172705194 2.9443580632799411 2.0 1.7115290748787062 2.3160443060416256 2.0 17.448089876777331 5.0703903059096058 2.0 33.459888824536336 7.3507519989577306 2.0 40.036765737520575 5.9179928206152885 2.0 54.977290587725641 2.8961488435297307 2.0 82.81693284446952 1 2.0 83.330449572087986 3.8565790384784986 2.0 98.388185912794029 6.9123340008631153 2.0 85.263369601139729 5.3258774176453114 2.0 86.951517642576349 5.4441666238052324 2.0 27.857153013957106 2.7009686404284539 2.0 30.087249026836027 1 2.0 66.094336563941596 2.5436134784024187 2.0 99.422655587248912 3.2765245645642236 2.0 39.680162327113564 7.3786979455688693 2.0 12.895853422693879 4.8972983115850344 2.0 19.992201988952523 3.1060463658598079 2.0 39.756605494978857 2.956218878756284 2.0 49.907959857222906 2.5614471124784357 2.0 56.740227855287529 3.3985124247672012 2.0 63.106817241064867 3.7639857869040911 2.0 87.394188272650922 2.8698880225784746 2.0 92.002464118913949 8.1192465253592516 2.0 59.557699871274828 4.0987689939117198 2.0 82.283276615387081 5.2511940524806313 2.0 89.375245501488052 7.2284297903120347 2.0 91.460752902664893 4.9641775884916717 2.0 97.092089746680358 2.0049630216790377 2.0 25.640706875171002 3.3555878510848851 2.0 38.257126602981664 3.146032277609462 2.0 93.170975951211076 1.9415360074257915 2.0 43.022616833966858 1.0730086157379097 2.0 4.293393364210389 2.1532921770802034 2.0 18.557092167927021 2.410117450785163 2.0 29.898205789032833 7.827054166316711 2.0 53.03842509626233 3.0344005772862785 2.0 82.811150404582506 2.7516095749824614 2.0 84.832132305956421 3.920709227848759 2.0 96.592092173697495 6.1266640472348142 2.0 84.434710072583897 6.5265390103919403 2.0 88.887218257141285 5.127478176114983 2.0 32.89527184138602 2.8389234014673437 2.0 100.01255878518357 1 2.0 38.841171546172923 8.5532468819946086 2.0 </DataArray>