<?xml version="1.0" ?>
<VTKFile byte_order="LittleEndian" type="UnstructuredGrid" version="0.1">
<UnstructuredGrid>
<Piece NumberOfCells="0" NumberOfPoints="112">
<Points>
<DataArray NumberOfComponents="3" format="ascii" type="Float32">0.90697606224855953 1 2.0 4.1224736529842563 2.8345512404743696 2.0 6.9139279337084965 1 2.0 11.411491957539775 4.116878127527352 2.0 13.00820023289377 1.0 2.0 16.0 1.0 2.0 18.854884341598495 1.0 2.0 21.260997798150285 1.6767267778853099 2.0 23.887948445679672 2.8391497843977378 2.0 27.992917723938202 1 2.0 30.56145916353486 3.7785987906832963 2.0 33.785485743952876 1 2.0 35.859214692464349 1.9680224115617242 2.0 39.262801083369773 2.9214219141045188 2.0 43.506019702461053 1 2.0 44.934770048358658 2.1788050805504731 2.0 49.0 1.0 2.0 52.59691452666231 3.004293508908384 2.0 55.051578649372836 1 2.0 56.67088049706215 1.5897031656830616 2.0 61.586648739361365 1 2.0 63.612368340891045 2.1451961123276289 2.0 67.845977711000671 1 2.0 70.0 1.0 2.0 73.0 1.0 2.0 76.0 1.0 2.0 78.52914552671497 1 2.0 82.296097349090346 2.5753263929368666 2.0 84.529161735262036 1 2.0 86.404719298532058 1.7439458940648467 2.0 90.660541573278749 1.1853111069080704 2.0 94.08969905531697 5.1569678902914404 2.0 97.482455984281685 3.5147075875429845 2.0 102.53869764767072 3.0802532150551118 2.0 5.9247032513098983 2.4093910929872142 2.0 8.6697725024383452 1 2.0 21.861442209809034 3.9799273230263181 2.0 26.177592119894669 3.8310159778077 2.0 32.002996059467321 1 2.0 37.065243035126578 4.4144506041395584 2.0 43.580068168929756 3.4071715097847282 2.0 47.662518830942545 2.7403525388943528 2.0 51.263691341670494 1.0 2.0 59.941877177340146 2.688079507324308 2.0 62.073880140375351 2.6790483463692372 2.0 83.479884607337482 4.445372591355377 2.0 88.989874156603264 5.3095976599758625 2.0 90.759144829506567 4.4164048104559699 2.0 92.602260911699858 3.2529585054666019 2.0 95.832324738011806 2.3563796876341914 2.0 100.25462997818603 1 2.0 2.3760589292404428 1.4294829002502341 2.0 10.643107196810986 1.2450088456219264 2.0 22.84775229968238 1.1011001069245838 2.0 26.165485056992317 1.7274597147043496 2.0 29.573235444381442 1.3582828518551442 2.0 33.573145362418451 2.5547754140106247 2.0 38.66306749264929 1.3447138998510801 2.0 45.669631476882287 3.7663457749065428 2.0 50.867787779865012 3.3266824323654403 2.0 55.960789441565659 3.6140507951271417 2.0 66.074452821718438 3.2021348094638213 2.0 80.118935958354854 1.7822717641513874 2.0 87.92905311192952 1.4062188889459883 2.0 89.933893074776336 3.0030188123366695 2.0 94.054007013567755 2.5851600303446238 2.0 97.945614232978755 1.7792237689555763 2.0 100.26523922255706 3.2288827919920697 2.0 38.213187937140759 5.3100675618465969 2.0 41.860441186431153 1.0791641946173842 2.0 59.801480190030766 1 2.0 80.549614104363215 3.5565410150248753 2.0 86.349132404375354 3.5855542144486923 2.0 93.792854856277799 1 2.0 96.827623890435689 1 2.0 3.9181198821352994 1.103974516735144 2.0 9.6317829919579712 4.3450607139677899 2.0 19.849199193572311 2.5981864597078066 2.0 24.564462288784696 1.2473551516318335 2.0 31.039158686172403 5.2817237354857376 2.0 37.060643687561033 1.1163087606941444 2.0 40.7136497690014 3.6344924252352944 2.0 46.350517542830339 1.2518657413372414 2.0 53.98092526890737 2.1576072406039226 2.0 57.905663713973617 2.6342618102123305 2.0 64.98160784929901 1.4003067658234223 2.0 82.567712900523489 1 2.0 85.007905756437808 2.6005577476284709 2.0 91.278787005313077 2.6625254921879673 2.0 92.424954121790279 5.638589295267499 2.0 96.326131088450396 4.8118379452179898 2.0 101.32673562408077 2.0579460495512985 2.0 35.824370965452303 3.9110146163476824 2.0 42.108433212630707 2.830833161823179 2.0 58.822258289333938 3.9872998164338687 2.0 85.003364786604081 4.9528272554394563 2.0 87.663530476903802 4.426817067465568 2.0 92.488259587487335 1.5413661555626603 2.0 95.242069152277665 1 2.0 10.281226932638253 2.7988559930016166 2.0 27.55794349802089 2.6884885968054428 2.0 30.778997189223883 2.2963989523577242 2.0 34.862151193775297 3.043158772197311 2.0 37.625767312979789 2.8248188223007933 2.0 66.515965086009388 1.6615829604446974 2.0 88.670893239906476 2.6513433302127454 2.0 95.083636033432867 3.7835272161399933 2.0 99.223737173940378 2.1507599273671696 2.0 99.194827053584646 4.3914526721565981 2.0 38.974329803014136 6.7420116118747044 2.0 40.57689593058916 1.9057116885510115 2.0 81.938420619778427 4.3923653578181892 2.0 </DataArray>
</Points>
<Cells>
<DataArray Name="connectivity" format="ascii" type="Int32">0</DataArray>
<DataArray Name="offsets" format="ascii" type="Int32">0</DataArray>
<DataArray Name="types" format="ascii" type="UInt8">1</DataArray>
</Cells>
<PointData>
<DataArray Name="Points" NumberOfComponents="3" format="ascii" type="Float32">0.90697606224855953 1 2.0 4.1224736529842563 2.8345512404743696 2.0 6.9139279337084965 1 2.0 11.411491957539775 4.116878127527352 2.0 13.00820023289377 1.0 2.0 16.0 1.0 2.0 18.854884341598495 1.0 2.0 21.260997798150285 1.6767267778853099 2.0 23.887948445679672 2.8391497843977378 2.0 27.992917723938202 1 2.0 30.56145916353486 3.7785987906832963 2.0 33.785485743952876 1 2.0 35.859214692464349 1.9680224115617242 2.0 39.262801083369773 2.9214219141045188 2.0 43.506019702461053 1 2.0 44.934770048358658 2.1788050805504731 2.0 49.0 1.0 2.0 52.59691452666231 3.004293508908384 2.0 55.051578649372836 1 2.0 56.67088049706215 1.5897031656830616 2.0 61.586648739361365 1 2.0 63.612368340891045 2.1451961123276289 2.0 67.845977711000671 1 2.0 70.0 1.0 2.0 73.0 1.0 2.0 76.0 1.0 2.0 78.52914552671497 1 2.0 82.296097349090346 2.5753263929368666 2.0 84.529161735262036 1 2.0 86.404719298532058 1.7439458940648467 2.0 90.660541573278749 1.1853111069080704 2.0 94.08969905531697 5.1569678902914404 2.0 97.482455984281685 3.5147075875429845 2.0 102.53869764767072 3.0802532150551118 2.0 5.9247032513098983 2.4093910929872142 2.0 8.6697725024383452 1 2.0 21.861442209809034 3.9799273230263181 2.0 26.177592119894669 3.8310159778077 2.0 32.002996059467321 1 2.0 37.065243035126578 4.4144506041395584 2.0 43.580068168929756 3.4071715097847282 2.0 47.662518830942545 2.7403525388943528 2.0 51.263691341670494 1.0 2.0 59.941877177340146 2.688079507324308 2.0 62.073880140375351 2.6790483463692372 2.0 83.479884607337482 4.445372591355377 2.0 88.989874156603264 5.3095976599758625 2.0 90.759144829506567 4.4164048104559699 2.0 92.602260911699858 3.2529585054666019 2.0 95.832324738011806 2.3563796876341914 2.0 100.25462997818603 1 2.0 2.3760589292404428 1.4294829002502341 2.0 10.643107196810986 1.2450088456219264 2.0 22.84775229968238 1.1011001069245838 2.0 26.165485056992317 1.7274597147043496 2.0 29.573235444381442 1.3582828518551442 2.0 33.573145362418451 2.5547754140106247 2.0 38.66306749264929 1.3447138998510801 2.0 45.669631476882287 3.7663457749065428 2.0 50.867787779865012 3.3266824323654403 2.0 55.960789441565659 3.6140507951271417 2.0 66.074452821718438 3.2021348094638213 2.0 80.118935958354854 1.7822717641513874 2.0 87.92905311192952 1.4062188889459883 2.0 89.933893074776336 3.0030188123366695 2.0 94.054007013567755 2.5851600303446238 2.0 97.945614232978755 1.7792237689555763 2.0 100.26523922255706 3.2288827919920697 2.0 38.213187937140759 5.3100675618465969 2.0 41.860441186431153 1.0791641946173842 2.0 59.801480190030766 1 2.0 80.549614104363215 3.5565410150248753 2.0 86.349132404375354 3.5855542144486923 2.0 93.792854856277799 1 2.0 96.827623890435689 1 2.0 3.9181198821352994 1.103974516735144 2.0 9.6317829919579712 4.3450607139677899 2.0 19.849199193572311 2.5981864597078066 2.0 24.564462288784696 1.2473551516318335 2.0 31.039158686172403 5.2817237354857376 2.0 37.060643687561033 1.1163087606941444 2.0 40.7136497690014 3.6344924252352944 2.0 46.350517542830339 1.2518657413372414 2.0 53.98092526890737 2.1576072406039226 2.0 57.905663713973617 2.6342618102123305 2.0 64.98160784929901 1.4003067658234223 2.0 82.567712900523489 1 2.0 85.007905756437808 2.6005577476284709 2.0 91.278787005313077 2.6625254921879673 2.0 92.424954121790279 5.638589295267499 2.0 96.326131088450396 4.8118379452179898 2.0 101.32673562408077 2.0579460495512985 2.0 35.824370965452303 3.9110146163476824 2.0 42.108433212630707 2.830833161823179 2.0 58.822258289333938 3.9872998164338687 2.0 85.003364786604081 4.9528272554394563 2.0 87.663530476903802 4.426817067465568 2.0 92.488259587487335 1.5413661555626603 2.0 95.242069152277665 1 2.0 10.281226932638253 2.7988559930016166 2.0 27.55794349802089 2.6884885968054428 2.0 30.778997189223883 2.2963989523577242 2.0 34.862151193775297 3.043158772197311 2.0 37.625767312979789 2.8248188223007933 2.0 66.515965086009388 1.6615829604446974 2.0 88.670893239906476 2.6513433302127454 2.0 95.083636033432867 3.7835272161399933 2.0 99.223737173940378 2.1507599273671696 2.0 99.194827053584646 4.3914526721565981 2.0 38.974329803014136 6.7420116118747044 2.0 40.57689593058916 1.9057116885510115 2.0 81.938420619778427 4.3923653578181892 2.0 </DataArray>
<DataArray Name="forces" NumberOfComponents="3" format="ascii" type="Float32">-0.37716779371078002 -0.12363652301472795 0.0 0.019118822115487797 0.10861128017699007 0.0 -0.0018732567885932083 -0.10698492307912043 0.0 0.13212209264824598 0.040432844690300541 0.0 0.0 0.0 0.0 0.0 0.0 0.0 0.0 0.0 0.0 0.035478097435777151 -0.078754462776803064 0.0 -0.059884683592128861 0.12229768729114762 0.0 -0.16138981524942711 -0.12808838197949893 0.0 -0.10870858895599431 0.08850152724304039 0.0 0.05610530045002924 -0.28153503838439636 0.0 -0.072670644582649768 -0.078470713371508183 0.0 -0.11309160900445087 0.079719520400641647 0.0 0.14548956954712794 -0.025363547787275054 0.0 -0.20206659530718107 0.0063829948385181277 0.0 0.0 0.0 0.0 -0.19942864252129108 0.11191182814551712 0.0 0.169874267809074 -0.20081015869535176 0.0 -0.18875168003279519 -0.17530685949026203 0.0 0.0037815578371423186 -0.084777550964971041 0.0 -0.064182101928300622 0.039394026642686313 0.0 0.33353418373930777 -0.19609816068549435 0.0 0.0 0.0 0.0 0.0 0.0 0.0 0.0 0.0 0.0 -0.043195830802794655 -0.034049474433332963 0.0 -0.043331188144162869 0.24955555476448832 0.0 -0.047632195109461643 -0.15447216209561423 0.0 -0.082106284356832454 -0.091263438783378309 0.0 -0.10713559306276731 -0.27075442519397191 0.0 0.065360221059271362 -0.0024200165682899798 0.0 0.077772004458716418 -0.09455182796998586 0.0 0.21513762898297489 0.15532102538432727 0.0 -0.057351195764109381 0.069285811236042924 0.0 0.059224452552702589 -0.012566370614359173 0.0 0.0 0.0 0.0 -0.015065707884090423 0.00046668833553008965 0.0 -0.041610834788012641 -0.012566370614359173 0.0 0.13481883575677558 0.072789399619220679 0.0 0.30987122606728473 0.099646251730283714 0.0 0.0 0.0 0.0 0.0 0.0 0.0 0.11192452843926 -0.045451469907569035 0.0 -0.17134422887672768 0.099879832184698619 0.0 0.063196539266899665 -0.08177723428872874 0.0 0.22782978571096127 0.13834686249938194 0.0 0.095691940893111005 0.15208484356207758 0.0 0.1887808422625685 0.40545240593724452 0.0 0.19264814816577364 0.22185813117769002 0.0 -0.039019846773457767 -0.42223291580647671 0.0 0.10760907317492074 0.13002996856177337 0.0 0.063898108630954742 -0.29802797243637302 0.0 0.059783302351916763 -0.070479868070297533 0.0 0.020690188938225607 -0.06860372188972122 0.0 -0.091074913721994694 -0.20469340605634542 0.0 -0.45169439053642352 0.056953617271516453 0.0 0.15435829483765889 -0.19029429241726226 0.0 0.034978950434314766 0.068735856648639487 0.0 0.0 0.0 0.0 0.0 0.0 0.0 -0.080276731391634576 0.26133389036634502 0.0 0.043195830802794655 0.0089167332046146183 0.0 0.022044532399367822 -0.4157611820059961 0.0 0.028882616060862842 0.063783554148875335 0.0 0.016361211788471858 -0.15478522027540936 0.0 -0.12814854044461982 0.069519699511532335 0.0 0.24027033400302902 0.18674385485131009 0.0 0.16606315703939667 0.0086473830518306264 0.0 0.15363465401591417 -0.26661182514464232 0.0 -0.02895026878481851 -0.12237416177764524 0.0 -0.19181964881623106 -0.12321119509009844 0.0 -0.14840900710324778 -0.10705879743098989 0.0 0.05873321955737576 -0.3883200212862572 0.0 -0.099918068013557071 -0.37533079210220127 0.0 0.25043989842037145 -0.19040294941019048 0.0 -0.12776592116591581 0.11947323701925652 0.0 -0.14536672457545941 0.081212675348713737 0.0 -0.035928412728882683 -0.20834658290894473 0.0 0.077692153363842692 0.25073117009447871 0.0 0.13378070476579038 -0.31061257018713123 0.0 0.009622483444646562 0.35850848891007242 0.0 0.16708764487286631 -0.12538433394459431 0.0 0.029554374712217085 0.038632848092397969 0.0 0.055659047187473498 -0.045925569091977349 0.0 0.018711199740450823 -0.19122587151751003 0.0 0.043331188144162869 -0.27468829599320665 0.0 -0.23578984969060068 0.14607957691124951 0.0 0.03681378250249083 0.024631989416785682 0.0 -0.10413357680693103 0.018012786717111956 0.0 0.096811384724491453 0.20227590642603199 0.0 0.18249228197750775 -0.18043042096861495 0.0 -0.040488459484727679 0.1547360757952643 0.0 -0.051220203033927894 -0.20716258430083989 0.0 0.027214007885220881 0.27596072473822114 0.0 0.23359287631422815 0.0618620767864951 0.0 0.010788273641905266 -0.022520732441003673 0.0 -0.33480120706006544 -0.12694474678427031 0.0 -0.0065934125609332372 -0.39813982923132069 0.0 -0.068254280113284882 0.037590925811942615 0.0 0.12323013766179676 0.089996339278884827 0.0 0.30054496695641852 -0.17583255865480457 0.0 -0.23191916598228046 0.040962641194792308 0.0 -0.13426466977041437 -0.12037031374902685 0.0 -0.017319513814578691 -0.091868984012423757 0.0 -0.27610788697016586 0.15174620710564379 0.0 -0.041183726931317305 0.11430727085598616 0.0 0.083192612190809173 0.036560977832827517 0.0 -0.18863162549573143 0.21348275237184464 0.0 0.099715421260946943 0.16610055493659578 0.0 -0.22649967000268401 -0.14826246644301674 0.0 -0.10496976676489675 0.067728128906177049 0.0 </DataArray>
<DataArray Name="radii" format="ascii" type="Float32">1 1 1 1 1 1 1 1 1 1 1 1 1 1 1 1 1 1 1 1 1 1 1 1 1 1 1 1 1 1 1 1 1 1 1 1 1 1 1 1 1 1 1 1 1 1 1 1 1 1 1 1 1 1 1 1 1 1 1 1 1 1 1 1 1 1 1 1 1 1 1 1 1 1 1 1 1 1 1 1 1 1 1 1 1 1 1 1 1 1 1 1 1 1 1 1 1 1 1 1 1 1 1 1 1 1 1 1 1 1 1 1 </DataArray>
</PointData>
<CellData/>
</Piece>
</UnstructuredGrid>
</VTKFile>
