<?xml version="1.0" ?>
<VTKFile byte_order="LittleEndian" type="UnstructuredGrid" version="0.1">
<UnstructuredGrid>
<Piece NumberOfCells="0" NumberOfPoints="34">
<Points>
<DataArray NumberOfComponents="3" format="ascii" type="Float32">1.2703278651673586 1.1585464543887574 2 3.8922617718118029 1.2971670240878377 2 6.5195327247567025 1.3005047780653425 2 9.072594175503113 1.1438838568362828 2 11.585965744851983 1.2887600040440581 2 14.227978985967862 1.148966534623054 2 17.0 1.2783009122724052 2 20.0 1.1536991359585602 2 23.0 1.2783009122724052 2 26.0 1.1536991359585602 2 29.0 1.1536991359585602 2 32.0 1.2783009122724052 2 35.0 1.1536991359585602 2 38.0 1.1536991359585602 2 41.0 1.2783009122724052 2 44.0 1.1536991359585602 2 47.0 1.2783009122724052 2 50.0 1.1536991359585602 2 53.0 1.1536991359585602 2 56.0 1.2783009122724052 2 59.0 1.1536991359585602 2 62.0 1.2783009122724052 2 65.0 1.2783009122724052 2 68.0 1.2783009122724052 2 71.0 1.1536991359585602 2 74.0 1.1536991359585602 2 77.0 1.1536991359585602 2 80.0 1.1536991359585602 2 83.0 1.2783009122724052 2 86.0 1.2783009122724052 2 89.0 1.2783009122724052 2 92.0 1.1536991359585602 2 95.0 1.1536991359585602 2 98.0 1.2783009122724052 2 </DataArray>
</Points>
<Cells>
<DataArray Name="connectivity" format="ascii" type="Int32">0</DataArray>
<DataArray Name="offsets" format="ascii" type="Int32">0</DataArray>
<DataArray Name="types" format="ascii" type="UInt8">1</DataArray>
</Cells>
<PointData>
<DataArray Name="Points" NumberOfComponents="3" format="ascii" type="Float32">1.2703278651673586 1.1585464543887574 2 3.8922617718118029 1.2971670240878377 2 6.5195327247567025 1.3005047780653425 2 9.072594175503113 1.1438838568362828 2 11.585965744851983 1.2887600040440581 2 14.227978985967862 1.148966534623054 2 17.0 1.2783009122724052 2 20.0 1.1536991359585602 2 23.0 1.2783009122724052 2 26.0 1.1536991359585602 2 29.0 1.1536991359585602 2 32.0 1.2783009122724052 2 35.0 1.1536991359585602 2 38.0 1.1536991359585602 2 41.0 1.2783009122724052 2 44.0 1.1536991359585602 2 47.0 1.2783009122724052 2 50.0 1.1536991359585602 2 53.0 1.1536991359585602 2 56.0 1.2783009122724052 2 59.0 1.1536991359585602 2 62.0 1.2783009122724052 2 65.0 1.2783009122724052 2 68.0 1.2783009122724052 2 71.0 1.1536991359585602 2 74.0 1.1536991359585602 2 77.0 1.1536991359585602 2 80.0 1.1536991359585602 2 83.0 1.2783009122724052 2 86.0 1.2783009122724052 2 89.0 1.2783009122724052 2 92.0 1.1536991359585602 2 95.0 1.1536991359585602 2 98.0 1.2783009122724052 2 </DataArray>
<DataArray Name="forces" NumberOfComponents="3" format="ascii" type="Float32">-0.25634219029243488 0.0095824151044116689 0.0 0.099807986395532344 0.037295448488695745 0.0 -0.068440158290859476 0.043893683077453921 0.0 0.19768486932314178 -0.019403321706575712 0.0 -0.018947248233835437 0.020676041901179717 0.0 0.1202937210832582 -0.0093556367656806756 0.0 0.0 0.0 0.0 0.0 0.0 0.0 0.0 0.0 0.0 0.0 0.0 0.0 0.0 0.0 0.0 0.0 0.0 0.0 0.0 0.0 0.0 0.0 0.0 0.0 0.0 0.0 0.0 0.0 0.0 0.0 0.0 0.0 0.0 0.0 0.0 0.0 0.0 0.0 0.0 0.0 0.0 0.0 0.0 0.0 0.0 0.0 0.0 0.0 0.0 0.0 0.0 0.0 0.0 0.0 0.0 0.0 0.0 0.0 0.0 0.0 0.0 0.0 0.0 0.0 0.0 0.0 0.0 0.0 0.0 0.0 0.0 0.0 0.0 0.0 0.0 0.0 0.0 0.0 0.0 0.0 0.0 0.0 0.0 0.0 </DataArray>
<DataArray Name="radii" format="ascii" type="Float32">1.4 1.5999999999999999 1.5999999999999999 1.4 1.5999999999999999 1.4 1.5999999999999999 1.4 1.5999999999999999 1.4 1.4 1.5999999999999999 1.4 1.4 1.5999999999999999 1.4 1.5999999999999999 1.4 1.4 1.5999999999999999 1.4 1.5999999999999999 1.5999999999999999 1.5999999999999999 1.4 1.4 1.4 1.4 1.5999999999999999 1.5999999999999999 1.5999999999999999 1.4 1.4 1.5999999999999999 </DataArray>
</PointData>
<CellData/>
</Piece>
</UnstructuredGrid>
</VTKFile>
