<?xml version="1.0" ?>
<VTKFile byte_order="LittleEndian" type="UnstructuredGrid" version="0.1">
<UnstructuredGrid>
<Piece NumberOfCells="0" NumberOfPoints="68">
<Points>
<DataArray NumberOfComponents="3" format="ascii" type="Float32">0.99570262006900911 3.0336033018070463 2.0 3.0089690923688854 1 2.0 8.0772453530382879 1 2.0 9.2324017119025683 2.4560454444665782 2.0 12.596943496555337 1.0523626600929685 2.0 16.230096900573653 1.0 2.0 19.0 1.0 2.0 22.0 1.0 2.0 25.482926785227992 1.267275016118403 2.0 28.0 1.0 2.0 30.720045093369041 1.0 2.0 34.893478822784118 3.2941242474052239 2.0 36.798369989652713 1.0 2.0 38.565380800795076 4.4906879694540702 2.0 42.995439140512254 1.177761476840133 2.0 46.525895310402731 2.376336081820039 2.0 48.303858119131895 1.4599351236965565 2.0 54.514985602738399 2.7335812356979252 2.0 55.506686285810325 1 2.0 57.894818730470469 1 2.0 60.244386617277037 1.0 2.0 63.98295882351276 1.0 2.0 66.951042194753086 2.7501504441537103 2.0 69.934060938385286 2.4389394341222741 2.0 73.324365876062046 1.0 2.0 75.282632858638067 2.1185227319654985 2.0 79.085587931912613 1 2.0 82.0 1.0 2.0 84.994574689423331 1.0 2.0 88.721142125268543 1.9965204668654104 2.0 91.0 1.0 2.0 93.065532074527567 1.4649579745585517 2.0 96.930600454197062 1 2.0 99.5825469249843 1 2.0 1.2213491646309727 1.0724527636861352 2.0 7.7366009553768169 5.7396473607781413 2.0 11.176211347776675 2.4310681933917566 2.0 13.83701150163308 3.0822746137199628 2.0 23.482848898120814 3.3617950789846476 2.0 33.114734080673188 1.4660299487533182 2.0 39.281641871928315 1.0 2.0 43.464574156199703 3.1219740488644976 2.0 44.995674710239363 1.0880526356514348 2.0 47.686727029991808 4.4145943166203585 2.0 51.366681998180901 1 2.0 63.17515388028918 2.8451818065716115 2.0 65.982990440556136 1.0 2.0 71.323141492754303 1.0 2.0 77.259618583929296 1.8159877076662092 2.0 86.721183385884814 2.0093673318812408 2.0 95.156061883555495 3.6861655524874783 2.0 97.430218346801112 2.9494243289845321 2.0 6.2503753943655402 4.6118514524956966 2.0 15.839800034668823 3.1231307155643973 2.0 25.347055895622965 4.094510973938398 2.0 32.882601575057009 3.4554326761790533 2.0 39.869663482257145 2.9117271269644092 2.0 40.962208092471421 5.2150901515303589 2.0 49.968755213310587 4.5790776628777641 2.0 52.522199254731277 2.6245811627896427 2.0 61.6392680365893 4.3942141331527917 2.0 95.052963496473808 1.6888246460440561 2.0 100.48498909440396 6.4679482418304106 2.0 5.4730941500682615 1.9642473819223814 2.0 42.909788309081684 5.6756985403048867 2.0 51.967669558421498 4.5424127434259214 2.0 58.708363254854035 3.8422436053128006 2.0 100.48414819626703 3.6158467256990656 2.0 </DataArray>
</Points>
<Cells>
<DataArray Name="connectivity" format="ascii" type="Int32">0</DataArray>
<DataArray Name="offsets" format="ascii" type="Int32">0</DataArray>
<DataArray Name="types" format="ascii" type="UInt8">1</DataArray>
</Cells>
<PointData>
<DataArray Name="Points" NumberOfComponents="3" format="ascii" type="Float32">0.99570262006900911 3.0336033018070463 2.0 3.0089690923688854 1 2.0 8.0772453530382879 1 2.0 9.2324017119025683 2.4560454444665782 2.0 12.596943496555337 1.0523626600929685 2.0 16.230096900573653 1.0 2.0 19.0 1.0 2.0 22.0 1.0 2.0 25.482926785227992 1.267275016118403 2.0 28.0 1.0 2.0 30.720045093369041 1.0 2.0 34.893478822784118 3.2941242474052239 2.0 36.798369989652713 1.0 2.0 38.565380800795076 4.4906879694540702 2.0 42.995439140512254 1.177761476840133 2.0 46.525895310402731 2.376336081820039 2.0 48.303858119131895 1.4599351236965565 2.0 54.514985602738399 2.7335812356979252 2.0 55.506686285810325 1 2.0 57.894818730470469 1 2.0 60.244386617277037 1.0 2.0 63.98295882351276 1.0 2.0 66.951042194753086 2.7501504441537103 2.0 69.934060938385286 2.4389394341222741 2.0 73.324365876062046 1.0 2.0 75.282632858638067 2.1185227319654985 2.0 79.085587931912613 1 2.0 82.0 1.0 2.0 84.994574689423331 1.0 2.0 88.721142125268543 1.9965204668654104 2.0 91.0 1.0 2.0 93.065532074527567 1.4649579745585517 2.0 96.930600454197062 1 2.0 99.5825469249843 1 2.0 1.2213491646309727 1.0724527636861352 2.0 7.7366009553768169 5.7396473607781413 2.0 11.176211347776675 2.4310681933917566 2.0 13.83701150163308 3.0822746137199628 2.0 23.482848898120814 3.3617950789846476 2.0 33.114734080673188 1.4660299487533182 2.0 39.281641871928315 1.0 2.0 43.464574156199703 3.1219740488644976 2.0 44.995674710239363 1.0880526356514348 2.0 47.686727029991808 4.4145943166203585 2.0 51.366681998180901 1 2.0 63.17515388028918 2.8451818065716115 2.0 65.982990440556136 1.0 2.0 71.323141492754303 1.0 2.0 77.259618583929296 1.8159877076662092 2.0 86.721183385884814 2.0093673318812408 2.0 95.156061883555495 3.6861655524874783 2.0 97.430218346801112 2.9494243289845321 2.0 6.2503753943655402 4.6118514524956966 2.0 15.839800034668823 3.1231307155643973 2.0 25.347055895622965 4.094510973938398 2.0 32.882601575057009 3.4554326761790533 2.0 39.869663482257145 2.9117271269644092 2.0 40.962208092471421 5.2150901515303589 2.0 49.968755213310587 4.5790776628777641 2.0 52.522199254731277 2.6245811627896427 2.0 61.6392680365893 4.3942141331527917 2.0 95.052963496473808 1.6888246460440561 2.0 100.48498909440396 6.4679482418304106 2.0 5.4730941500682615 1.9642473819223814 2.0 42.909788309081684 5.6756985403048867 2.0 51.967669558421498 4.5424127434259214 2.0 58.708363254854035 3.8422436053128006 2.0 100.48414819626703 3.6158467256990656 2.0 </DataArray>
<DataArray Name="forces" NumberOfComponents="3" format="ascii" type="Float32">-0.0084296961454645766 0.045968143294421074 0.0 -0.14786683745735413 -0.18382199636987351 0.0 0.14780148901856749 -0.20899511229772402 0.0 0.042600823976511645 0.11419311853506173 0.0 0.012608479185160846 -0.011987546217217152 0.0 0.0 0.0 0.0 0.0 0.0 0.0 0.0 0.0 0.0 0.0 0.0 0.0 0.0 0.0 0.0 0.0 0.0 0.0 0.0 0.0 0.0 0.0 0.0 0.0 0.0 0.0 0.0 0.0 0.0 0.0 0.0 0.0 0.0 0.0 0.0 0.0 0.0039836219877130014 0.0037608601559052965 0.0 0.001970600276995469 -0.0034374182048223182 0.0 -0.02177130205848923 -0.075575847993560208 0.0 0.0 0.0 0.0 0.0 0.0 0.0 0.0 0.0 0.0 0.0 0.0 0.0 0.0 0.0 0.0 -5.1078500664639344e-10 7.8164628332895077e-11 0.0 5.1424237008137088e-10 -2.2980421507725526e-10 0.0 0.0 0.0 0.0 0.0 0.0 0.0 0.0 0.0 0.0 0.0 0.0 0.0 -2.699676539753458e-08 -3.0409481959492632e-09 0.0 2.80103030542934e-08 -1.0275781562522813e-08 0.0 -0.093523347750045852 -0.29688298239011413 0.0 -0.25690566685599392 -0.032343013694023488 0.0 0.14545761952494254 0.12157753088381067 0.0 0.04421617566394432 0.012769225574721361 0.0 0.0 0.0 0.0 0.0 0.0 0.0 0.0 0.0 0.0 0.0 0.0 0.0 0.0 0.0 0.0 0.0 0.0 0.0 0.0 0.0 0.0 -0.0052137001343399133 -0.0073443530824942897 0.0 0.0 0.0 0.0 0.0 0.0 0.0 0.0 0.0 0.0 -3.4573634349774389e-12 1.516395867443602e-10 0.0 0.0 0.0 0.0 6.4722622672910142e-10 1.2538813320302583e-08 0.0 0.0 0.0 0.0 -0.045061589682969944 0.18680651161346107 0.0 0.0 0.0 0.0 0.0 0.0 0.0 0.0 0.0 0.0 0.0 0.0 0.0 0.0 0.0 0.0 -0.0010900656037520916 2.1351400177698724e-05 0.0 0.00067858844490255137 0.0021120149033997176 0.0 0.033989590899125573 0.0068221529826939962 0.0 -1.6607638834879221e-09 7.779164381694919e-10 0.0 0.0031687844059120254 0.19615896850713921 0.0 0.055005601417493527 -0.070131966835353554 0.0 0.0 0.0 0.0 -0.00032904497151901727 0.0048875448278338949 0.0 -0.012218288840636343 0.068753695010866214 0.0 0.090354563344133831 0.10072401388297492 0.0 </DataArray>
<DataArray Name="radii" format="ascii" type="Float32">1 1 1 1 1 1 1 1 1 1 1 1 1 1 1 1 1 1 1 1 1 1 1 1 1 1 1 1 1 1 1 1 1 1 1 1 1 1 1 1 1 1 1 1 1 1 1 1 1 1 1 1 1 1 1 1 1 1 1 1 1 1 1 2 1 1 2 2 </DataArray>
</PointData>
<CellData/>
</Piece>
</UnstructuredGrid>
</VTKFile>
