<?xml version="1.0" ?>
<VTKFile byte_order="LittleEndian" type="UnstructuredGrid" version="0.1">
<UnstructuredGrid>
<Piece NumberOfCells="0" NumberOfPoints="117">
<Points>
<DataArray NumberOfComponents="3" format="ascii" type="Float32">0.96966738148359533 1 2 2.7332567692570553 1 2 4.934883848221765 1.496366976431668 2.1999999999999997 10.328106561793728 1 2 12.115753706824201 1 2 13.886662010325932 1 2 15.759852621882192 1 2 16.503861192345859 3.4519740713942131 2.1999999999999997 22.951636717504275 1 2 24.788997857833873 1 2 26.584665495844376 1 2 28.758721494576005 1.4536232933143884 2.1999999999999997 30.996185939080991 1 2 39.535763230382571 3.16737217153335 2.1999999999999997 40.633711113350834 1 2 42.295974088554125 1 2 43.904316800100808 1 2 47.874338850005138 1 2 45.061524530940893 4.371588031563884 2.1999999999999997 53.382050649709498 1.4436114413513212 2.1999999999999997 59.018518195344512 2.9150194232082831 2.1999999999999997 63.172479346091251 3.5617137693229965 2.1999999999999997 66.185922949007562 1.4858935879019559 2.1999999999999997 69.310119942746084 2.9079409030968755 2.1999999999999997 69.924958450688791 1 2 75.307960339220912 1 2 78.693798092100522 6.2051075428124944 2.1999999999999997 82.869302303723046 1 2 84.045483032106461 1 2 84.222294122936532 6.2626067822947293 2.1999999999999997 89.951524180099028 1.4437086179217282 2.1999999999999997 94.330239162638961 1.4426521196424131 2.1999999999999997 98.791759994816886 1 2 100.74994512303616 1.4709624395869945 2.1999999999999997 8.5074975743484895 1 2 20.949074197674399 3.9508842245652369 2.1999999999999997 31.13330835293398 2.7377344055333523 2.1999999999999997 35.649945216690917 1.4459723486273079 2.1999999999999997 48.990866979573845 5.175768935114033 2 51.443650533348716 1.4733068405240686 2.1999999999999997 61.155330953556259 4.9177103188236826 2.1999999999999997 62.336475868056112 1.41074208205311 2.1999999999999997 65.756403604797541 5.6913209527535251 2 73.107193390451798 3.5883381836575809 2.1999999999999997 75.385677159138282 3.3126775763148486 2.1999999999999997 86.159759876619219 1.4594913785581756 2.1999999999999997 88.738083688839765 5.7412823577325236 2.1999999999999997 98.200102046466995 3.202603019680399 2.1999999999999997 107.38926305853678 1 2 7.2429873668581726 2.7692069713711152 2.1999999999999997 14.393292451388831 2.525601892615621 2 26.663092860847918 5.0855479518886249 2 43.019987043693327 2.9903128570011823 2.1999999999999997 47.41900966979577 3.3678003123653504 2.1999999999999997 54.489135872485697 5.7313917742298726 2 57.384652847673841 1.4248447585436925 2.1999999999999997 63.942635702596718 5.6603010610351285 2 67.074880454311284 3.9612573994428049 2.1999999999999997 70.983168033817364 4.2383457976786589 2.1999999999999997 78.956667471988439 1.4050280958523054 2.1999999999999997 81.226652204223683 1.3994239172678566 2.1999999999999997 92.111650341033211 1.4326817355379211 2.1999999999999997 95.795271038805978 4.5785504114104434 2 103.45450510578708 1.5474635921279585 2.1999999999999997 26.343439032631743 2.8391453286471515 2.1999999999999997 34.729401421211307 3.5456304093266042 2 37.066874171499585 3.6260032664018427 2.1999999999999997 51.287215943381241 4.695771101657555 2.1999999999999997 56.218206395658008 6.2513086176754102 2 60.636657798500821 1 2 72.53916968286758 5.9297763349850952 2 76.939948714886697 1.4053579422145099 2.1999999999999997 83.825891809129629 3.5092338510790633 2.1999999999999997 92.216945320732449 6.1032770864380872 2.1999999999999997 97.316872791046535 1 2 2.4325944146985186 3.1675723855972278 2 18.175081514799999 1.4823070316781215 2 28.987557133876219 4.3870259500916911 2 39.062156861359092 1 2 45.765888539204909 1.4611068611917359 2 55.37450937220602 1.427627234752822 2 59.309432611678936 1 2 64.48284816695562 1.4288650709752 2 65.12361397134876 3.8670785124392149 2 68.060954837190934 1.3768652239382448 2 77.583082213524037 3.91603068062421 2 82.34797082063217 2.7732716570906142 2 88.404559093710915 3.4107376124139077 2 96.001185062330535 1 2 101.15764049413156 4.1255613300121272 2 20.813910291469767 1.4492148576610437 2 32.87212023843005 4.6470108858159005 2 33.290661839436765 1.4703351025668165 2 49.465199668493824 1 2 58.508315658291309 5.5686503954031732 2 60.866473051457078 2.6385497334270696 2 74.355559239583243 5.4884078461430317 2 73.669695401166507 1.3929851166357834 2 87.987552396194204 1.4406484383734017 2 86.344169747002937 4.2114974709342086 2 96.046555779413964 2.7749608273965958 2 10.216729951394461 2.9915091830493044 2 41.245408075885379 2.350886060798874 2 49.50476947677695 2.7492573862276282 2 56.261447252843766 3.9422980145195741 2 68.870030612013011 5.9662203708081973 2 71.535663678044514 1.4185327796217266 2 80.010766931660612 3.5036258161026157 2 81.570446785864647 5.1808579166104787 2 90.703003414553805 3.8096616574838804 2 105.58330833041538 1 2 23.654541745827437 2.9957357892890091 2 37.575878217998167 1 2 53.565786342642838 3.7931125430068762 2 76.144707621897879 5.6584252019770247 2 84.504457946997803 1.9738244576111168 2 93.682975908774182 3.7999543298258187 2 </DataArray>
</Points>
<Cells>
<DataArray Name="connectivity" format="ascii" type="Int32">0</DataArray>
<DataArray Name="offsets" format="ascii" type="Int32">0</DataArray>
<DataArray Name="types" format="ascii" type="UInt8">1</DataArray>
</Cells>
<PointData>
<DataArray Name="Points" NumberOfComponents="3" format="ascii" type="Float32">0.96966738148359533 1 2 2.7332567692570553 1 2 4.934883848221765 1.496366976431668 2.1999999999999997 10.328106561793728 1 2 12.115753706824201 1 2 13.886662010325932 1 2 15.759852621882192 1 2 16.503861192345859 3.4519740713942131 2.1999999999999997 22.951636717504275 1 2 24.788997857833873 1 2 26.584665495844376 1 2 28.758721494576005 1.4536232933143884 2.1999999999999997 30.996185939080991 1 2 39.535763230382571 3.16737217153335 2.1999999999999997 40.633711113350834 1 2 42.295974088554125 1 2 43.904316800100808 1 2 47.874338850005138 1 2 45.061524530940893 4.371588031563884 2.1999999999999997 53.382050649709498 1.4436114413513212 2.1999999999999997 59.018518195344512 2.9150194232082831 2.1999999999999997 63.172479346091251 3.5617137693229965 2.1999999999999997 66.185922949007562 1.4858935879019559 2.1999999999999997 69.310119942746084 2.9079409030968755 2.1999999999999997 69.924958450688791 1 2 75.307960339220912 1 2 78.693798092100522 6.2051075428124944 2.1999999999999997 82.869302303723046 1 2 84.045483032106461 1 2 84.222294122936532 6.2626067822947293 2.1999999999999997 89.951524180099028 1.4437086179217282 2.1999999999999997 94.330239162638961 1.4426521196424131 2.1999999999999997 98.791759994816886 1 2 100.74994512303616 1.4709624395869945 2.1999999999999997 8.5074975743484895 1 2 20.949074197674399 3.9508842245652369 2.1999999999999997 31.13330835293398 2.7377344055333523 2.1999999999999997 35.649945216690917 1.4459723486273079 2.1999999999999997 48.990866979573845 5.175768935114033 2 51.443650533348716 1.4733068405240686 2.1999999999999997 61.155330953556259 4.9177103188236826 2.1999999999999997 62.336475868056112 1.41074208205311 2.1999999999999997 65.756403604797541 5.6913209527535251 2 73.107193390451798 3.5883381836575809 2.1999999999999997 75.385677159138282 3.3126775763148486 2.1999999999999997 86.159759876619219 1.4594913785581756 2.1999999999999997 88.738083688839765 5.7412823577325236 2.1999999999999997 98.200102046466995 3.202603019680399 2.1999999999999997 107.38926305853678 1 2 7.2429873668581726 2.7692069713711152 2.1999999999999997 14.393292451388831 2.525601892615621 2 26.663092860847918 5.0855479518886249 2 43.019987043693327 2.9903128570011823 2.1999999999999997 47.41900966979577 3.3678003123653504 2.1999999999999997 54.489135872485697 5.7313917742298726 2 57.384652847673841 1.4248447585436925 2.1999999999999997 63.942635702596718 5.6603010610351285 2 67.074880454311284 3.9612573994428049 2.1999999999999997 70.983168033817364 4.2383457976786589 2.1999999999999997 78.956667471988439 1.4050280958523054 2.1999999999999997 81.226652204223683 1.3994239172678566 2.1999999999999997 92.111650341033211 1.4326817355379211 2.1999999999999997 95.795271038805978 4.5785504114104434 2 103.45450510578708 1.5474635921279585 2.1999999999999997 26.343439032631743 2.8391453286471515 2.1999999999999997 34.729401421211307 3.5456304093266042 2 37.066874171499585 3.6260032664018427 2.1999999999999997 51.287215943381241 4.695771101657555 2.1999999999999997 56.218206395658008 6.2513086176754102 2 60.636657798500821 1 2 72.53916968286758 5.9297763349850952 2 76.939948714886697 1.4053579422145099 2.1999999999999997 83.825891809129629 3.5092338510790633 2.1999999999999997 92.216945320732449 6.1032770864380872 2.1999999999999997 97.316872791046535 1 2 2.4325944146985186 3.1675723855972278 2 18.175081514799999 1.4823070316781215 2 28.987557133876219 4.3870259500916911 2 39.062156861359092 1 2 45.765888539204909 1.4611068611917359 2 55.37450937220602 1.427627234752822 2 59.309432611678936 1 2 64.48284816695562 1.4288650709752 2 65.12361397134876 3.8670785124392149 2 68.060954837190934 1.3768652239382448 2 77.583082213524037 3.91603068062421 2 82.34797082063217 2.7732716570906142 2 88.404559093710915 3.4107376124139077 2 96.001185062330535 1 2 101.15764049413156 4.1255613300121272 2 20.813910291469767 1.4492148576610437 2 32.87212023843005 4.6470108858159005 2 33.290661839436765 1.4703351025668165 2 49.465199668493824 1 2 58.508315658291309 5.5686503954031732 2 60.866473051457078 2.6385497334270696 2 74.355559239583243 5.4884078461430317 2 73.669695401166507 1.3929851166357834 2 87.987552396194204 1.4406484383734017 2 86.344169747002937 4.2114974709342086 2 96.046555779413964 2.7749608273965958 2 10.216729951394461 2.9915091830493044 2 41.245408075885379 2.350886060798874 2 49.50476947677695 2.7492573862276282 2 56.261447252843766 3.9422980145195741 2 68.870030612013011 5.9662203708081973 2 71.535663678044514 1.4185327796217266 2 80.010766931660612 3.5036258161026157 2 81.570446785864647 5.1808579166104787 2 90.703003414553805 3.8096616574838804 2 105.58330833041538 1 2 23.654541745827437 2.9957357892890091 2 37.575878217998167 1 2 53.565786342642838 3.7931125430068762 2 76.144707621897879 5.6584252019770247 2 84.504457946997803 1.9738244576111168 2 93.682975908774182 3.7999543298258187 2 </DataArray>
<DataArray Name="forces" NumberOfComponents="3" format="ascii" type="Float32">-0.26644594539022926 0.0 0.0 -0.0026113959403821774 -0.48259000469898217 0.0 -0.049194066907047168 -0.34515699396342026 0.0 0.0017728099637623201 -0.60972470385330357 0.0 -0.018118901510597141 0.0 0.0 -0.025887973907081502 -0.37125748479446896 0.0 -0.02058440514241909 -0.058606277906789669 0.0 -0.12897172104172061 0.62240035881434097 0.0 0.080311079734048607 -0.53811737970736251 0.0 -0.010996899410847083 -0.42538430457533644 0.0 -0.06650170702512892 -0.81293921305286065 0.0 -0.055417654232784171 -0.72062345926329485 0.0 -0.057697046640114241 -0.9752328639530421 0.0 0.060818173269721276 0.69300089718770685 0.0 -0.04898137260985988 -0.61914575347831891 0.0 -0.038124324490211831 -0.67663610941579899 0.0 -0.10402235375510172 -0.54368062402918105 0.0 -0.08993918164705797 -0.43804649787907701 0.0 -0.028820251197954325 0.87841392673081842 0.0 -0.0066648323896107697 -0.80856896123054933 0.0 -0.0020522554523229319 0.7402045335027182 0.0 -0.02494301254201127 0.61175381551644537 0.0 -0.028764707282044055 -0.43715669740903962 0.0 -0.0016540714082463603 0.71369800715450538 0.0 -0.041676685037027705 -0.9419747025883537 0.0 0.0067343603925567042 -0.72107670437285076 0.0 0.065924195969055438 0.80976900635285587 0.0 0.0040932684297667193 -0.41826947472340748 0.0 0.020837178181872862 -1.0055150729750064 0.0 0.19451694645481429 0.71622616539172701 0.0 0.037473537274943514 -0.807715348702575 0.0 0.045703658839835293 -0.81699577672374946 0.0 0.044825271880604423 -0.44159674281547062 0.0 0.078334060837927419 -0.56831398362849561 0.0 0.071559500833635992 -0.33823270127443872 0.0 -0.26856357323479441 0.81951847933065203 0.0 -0.037908947640232893 0.69524423803716173 0.0 0.050674315462425623 -0.78783042292108041 0.0 -0.13589596001975396 0.3205886229407352 0.0 -0.052374144998007105 -0.54772043929882774 0.0 0.052344810480391725 0.80824135879770143 0.0 -0.069294756009190661 -1.0972979909332286 0.0 -0.041361070665633819 0.40997327080322549 0.0 -0.020817058849910752 0.70721910999361104 0.0 0.014802879075919394 0.68928020635964382 0.0 0.0045956864311381684 -0.66907738124943172 0.0 0.017432396021998475 0.74573783315779629 0.0 0.13775971747371962 0.66705543265031775 0.0 0.19712879242391068 0.0 0.0 0.099169439243029289 0.60731432963074361 0.0 -0.13630303153320431 0.25609310501838933 0.0 -0.12430258195156736 0.37116020471134342 0.0 -0.00043959486712252804 0.6770437646691515 0.0 -0.10801941786379221 0.58554103188285223 0.0 -0.050509285198647308 0.4227746229006395 0.0 0.014902096157896394 -0.97341811659815836 0.0 -0.063596470266964578 0.33512180742818387 0.0 -0.025209897627156141 0.68850391113908871 0.0 -0.0071183436556176705 0.7672180286504009 0.0 0.016155644732562813 -1.1474904414925737 0.0 -0.013035543799422622 -1.1967183266572374 0.0 0.082946734665851451 -0.90457701924616396 0.0 0.30980696073814373 0.30698043603312608 0.0 0.13468340251266059 0.10368279440091968 0.0 -0.064267042194017243 0.68852327975306093 0.0 -0.014381233333240637 0.23200730866655064 0.0 -0.004022128743873532 0.73670762326359052 0.0 -0.081211608531980506 0.74691735505738532 0.0 -0.019507635496917381 0.41299208460699638 0.0 -0.053409500367086735 -0.69047706486760818 0.0 0.02732857092841251 0.43054263174647944 0.0 -0.0038451535062191955 -1.1445930251101526 0.0 0.0077259981763371788 0.63859815400325537 0.0 -0.0018773461935756297 0.7707508527842869 0.0 0.077762763901559007 -0.21441236516959228 0.0 -0.2710207306754554 0.55008354505035328 0.0 0.016404606961190504 -0.46866150676923229 0.0 -0.070360896691382929 0.72475082855339579 0.0 0.0068463466389830918 -0.37756520079404465 0.0 -0.12191862183821833 -0.65488675681232 0.0 -0.0021935765583656341 -0.94897645806919173 0.0 -0.026137139184652547 -0.82868049984635439 0.0 -0.03884160418441128 -0.93810313230170539 0.0 -0.024173145480555061 0.3252119861711209 0.0 -0.012219547219402688 -1.3948770305530427 0.0 0.039557571695162941 0.72388710318977267 0.0 -0.047333565855789753 0.31040074429322184 0.0 0.041040021404181171 0.32048623811242427 0.0 0.072682652541592563 -0.50258794119998496 0.0 0.19697171699971489 0.66813182876672272 0.0 0.142735924791969 -0.75934777199324066 0.0 0.027634403482899809 0.68598337105243745 0.0 -0.032352432959575086 -0.57382459938127717 0.0 -0.11176291073474581 -1.016940804193136 0.0 0.0048957048686275595 0.7916942817099083 0.0 -0.025043184452583314 0.36179903465053798 0.0 0.020555136268308294 0.38920807096460103 0.0 0.014445982806627677 -1.2532776481238006 0.0 0.029616103439988134 -0.83459639203804326 0.0 0.044029593877691092 0.62263292186951302 0.0 0.086656797384167317 0.25241900852067556 0.0 0.17893786286482355 0.62601512635456669 0.0 0.00036129864066614115 0.16650555019661653 0.0 -0.017725514218132617 0.68084128071785521 0.0 -0.029392305487666359 0.71798084485559865 0.0 -0.036723325050977917 0.78213041115999038 0.0 -0.018014099830867991 -1.0288634185010204 0.0 0.033580999328809202 0.76528071058903047 0.0 0.11746140395455917 0.8013852143670418 0.0 0.074102093205411224 0.67271891747741486 0.0 0.17004271852032132 -0.10368279440091968 0.0 -0.17213179470233048 0.65771353870915217 0.0 0.031446042233470251 -0.16877571162837332 0.0 -0.055160195456548711 0.66931535526233443 0.0 0.024283703431149356 0.41155205948452245 0.0 -0.016684106457961756 0.2497497681987817 0.0 0.15256652675575411 0.77180857169420225 0.0 </DataArray>
<DataArray Name="radii" format="ascii" type="Float32">1 1 1.5999999999999999 1 1 1 1 1.5999999999999999 1 1 1 1.5999999999999999 1 1.5999999999999999 1 1 1 1 1.5999999999999999 1.5999999999999999 1.5999999999999999 1.5999999999999999 1.5999999999999999 1.5999999999999999 1 1 1.5999999999999999 1 1 1.5999999999999999 1.5999999999999999 1.5999999999999999 1 1.5999999999999999 1 1.5999999999999999 1.5999999999999999 1.5999999999999999 1 1.5999999999999999 1.5999999999999999 1.5999999999999999 1 1.5999999999999999 1.5999999999999999 1.5999999999999999 1.5999999999999999 1.5999999999999999 1 1.5999999999999999 1 1 1.5999999999999999 1.5999999999999999 1 1.5999999999999999 1 1.5999999999999999 1.5999999999999999 1.5999999999999999 1.5999999999999999 1.5999999999999999 1 1.5999999999999999 1.5999999999999999 1 1.5999999999999999 1.5999999999999999 1 1 1 1.5999999999999999 1.5999999999999999 1.5999999999999999 1 1.5999999999999999 1.5999999999999999 1.5999999999999999 1 1.5999999999999999 1.5999999999999999 1 1.5999999999999999 1 1.5999999999999999 1.5999999999999999 1 1 1 1.5999999999999999 1.5999999999999999 1.5999999999999999 1.5999999999999999 1 1.5999999999999999 1 1 1.5999999999999999 1.5999999999999999 1.5999999999999999 1 1.5999999999999999 1 1.5999999999999999 1.5999999999999999 1.5999999999999999 1.5999999999999999 1.5999999999999999 1.5999999999999999 1.5999999999999999 1 1.5999999999999999 1 1.5999999999999999 1 1 1.5999999999999999 </DataArray>
</PointData>
<CellData/>
</Piece>
</UnstructuredGrid>
</VTKFile>
