<?xml version="1.0" ?>
<VTKFile byte_order="LittleEndian" type="UnstructuredGrid" version="0.1">
<UnstructuredGrid>
<Piece NumberOfCells="0" NumberOfPoints="34">
<Points>
<DataArray NumberOfComponents="3" format="ascii" type="Float32">0.99410637946671665 1 1.9671829711703372 2.8815228712961116 3.1511723545200843 2.2465969596050113 6.7328480754923383 2.2714176283166201 2.2288053563265335 9.2921867588032949 1 1.9689394955748254 11.085641754086177 1 2.0010914712955232 14.0 2.1993917876622646 2.1999999999999997 17.0 1 2.0 20.0 1 2.0 23.0 1 2.0 26.0 1 2.0 29.0 2.1993917876622646 2.1999999999999997 32.0 1 2.0 35.0 2.1993917876622646 2.1999999999999997 38.0 1 2.0 41.0 1 2.0 44.0 1 2.0 47.0 1 2.0 50.0 1 2.0 53.0 2.1993917876622646 2.1999999999999997 56.0 1 2.0 59.0 1 2.0 62.0 1 2.0 63.985339668385542 1 1.9417068804050104 66.328452620572179 2.6150047557723739 2.2838946270296416 70.101272277182105 2.1949893035405967 2.1985399869268432 74.064739200967836 2.218491197883429 2.2192676550329762 77.79863041249078 2.1883732183722557 2.1978699919566047 81.734281081766852 2.6061366855929244 2.2723684030163085 84.01006477718721 1 1.9362601871443665 86.0 1 2.0 89.0 1 2.0 92.0 1 2.0 95.0 1 2.0 98.0 2.1993917876622646 2.1999999999999997 </DataArray>
</Points>
<Cells>
<DataArray Name="connectivity" format="ascii" type="Int32">0</DataArray>
<DataArray Name="offsets" format="ascii" type="Int32">0</DataArray>
<DataArray Name="types" format="ascii" type="UInt8">1</DataArray>
</Cells>
<PointData>
<DataArray Name="Points" NumberOfComponents="3" format="ascii" type="Float32">0.99410637946671665 1 1.9671829711703372 2.8815228712961116 3.1511723545200843 2.2465969596050113 6.7328480754923383 2.2714176283166201 2.2288053563265335 9.2921867588032949 1 1.9689394955748254 11.085641754086177 1 2.0010914712955232 14.0 2.1993917876622646 2.1999999999999997 17.0 1 2.0 20.0 1 2.0 23.0 1 2.0 26.0 1 2.0 29.0 2.1993917876622646 2.1999999999999997 32.0 1 2.0 35.0 2.1993917876622646 2.1999999999999997 38.0 1 2.0 41.0 1 2.0 44.0 1 2.0 47.0 1 2.0 50.0 1 2.0 53.0 2.1993917876622646 2.1999999999999997 56.0 1 2.0 59.0 1 2.0 62.0 1 2.0 63.985339668385542 1 1.9417068804050104 66.328452620572179 2.6150047557723739 2.2838946270296416 70.101272277182105 2.1949893035405967 2.1985399869268432 74.064739200967836 2.218491197883429 2.2192676550329762 77.79863041249078 2.1883732183722557 2.1978699919566047 81.734281081766852 2.6061366855929244 2.2723684030163085 84.01006477718721 1 1.9362601871443665 86.0 1 2.0 89.0 1 2.0 92.0 1 2.0 95.0 1 2.0 98.0 2.1993917876622646 2.1999999999999997 </DataArray>
<DataArray Name="forces" NumberOfComponents="3" format="ascii" type="Float32">-0.0082597050012746566 -0.0093907923165173456 -0.0012166278299343542 -0.0046877863836695243 0.012330410150727059 0.0012766629553405638 -0.0010535291317714749 0.0040157342199817897 0.0013527008851175481 0.0053056287693246593 -0.0069553520541915034 -0.0015628978749800512 0.0086953917473909965 0.0 0.00015016186445629339 0.0 0.0 0.0 0.0 0.0 0.0 0.0 0.0 0.0 0.0 0.0 0.0 0.0 0.0 0.0 0.0 0.0 0.0 0.0 0.0 0.0 0.0 0.0 0.0 0.0 0.0 0.0 0.0 0.0 0.0 0.0 0.0 0.0 0.0 0.0 0.0 0.0 0.0 0.0 0.0 0.0 0.0 0.0 0.0 0.0 0.0 0.0 0.0 0.0 0.0 0.0 -0.059431231076591408 -0.040981643621230926 -0.0085262548904257995 0.0077772372538545201 0.046185318516060461 0.009573440530935404 -0.15308603584104385 -0.0061699289787007072 -0.0020461577419471537 0.14014653564187118 0.001343592987829149 0.0013256883636165227 -0.084758644532260327 -0.015442143137246782 -0.0029851324817112422 0.12055825195109579 0.035235620043392771 0.0068480702164510328 0.029743808270397333 -0.020098790420588718 -0.0041712978779514086 0.0 0.0 0.0 0.0 0.0 0.0 0.0 0.0 0.0 0.0 0.0 0.0 0.0 0.0 0.0 </DataArray>
<DataArray Name="radii" format="ascii" type="Float32">1 2.1999999999999997 2.1999999999999997 1 1 2.1999999999999997 1 1 1 1 2.1999999999999997 1 2.1999999999999997 1 1 1 1 1 2.1999999999999997 1 1 1 1 2.1999999999999997 2.1999999999999997 2.1999999999999997 2.1999999999999997 2.1999999999999997 1 1 1 1 1 2.1999999999999997 </DataArray>
</PointData>
<CellData/>
</Piece>
</UnstructuredGrid>
</VTKFile>
