<?xml version="1.0" ?>
<VTKFile byte_order="LittleEndian" type="UnstructuredGrid" version="0.1">
<UnstructuredGrid>
<Piece NumberOfCells="0" NumberOfPoints="34">
<Points>
<DataArray NumberOfComponents="3" format="ascii" type="Float32">0.86708221749249736 1 2 2.9284926533166868 1.0386423530692526 2 5.0999999999999996 1.0190442631532279 2 8.0 1 2 11.0 1.0190442631532279 2 14.0 1 2 17.0 1.0190442631532279 2 20.0 1 2 23.0 1.0190442631532279 2 26.0 1 2 29.0 1 2 32.0 1.0190442631532279 2 35.0 1 2 38.0 1 2 41.0 1.0190442631532279 2 44.0 1 2 47.0 1.0190442631532279 2 50.0 1 2 53.0 1 2 56.0 1.0190442631532279 2 59.0 1 2 62.0 1.0190442631532279 2 65.0 1.0190442631532279 2 68.0 1.0190442631532279 2 71.0 1 2 74.0 1 2 77.0 1 2 80.0 1 2 83.0 1.0190442631532279 2 86.0 1.0190442631532279 2 89.0 1.0190442631532279 2 92.0 1 2 95.0 1 2 98.0 1.0190442631532279 2 </DataArray>
</Points>
<Cells>
<DataArray Name="connectivity" format="ascii" type="Int32">0</DataArray>
<DataArray Name="offsets" format="ascii" type="Int32">0</DataArray>
<DataArray Name="types" format="ascii" type="UInt8">1</DataArray>
</Cells>
<PointData>
<DataArray Name="Points" NumberOfComponents="3" format="ascii" type="Float32">0.86708221749249736 1 2 2.9284926533166868 1.0386423530692526 2 5.0999999999999996 1.0190442631532279 2 8.0 1 2 11.0 1.0190442631532279 2 14.0 1 2 17.0 1.0190442631532279 2 20.0 1 2 23.0 1.0190442631532279 2 26.0 1 2 29.0 1 2 32.0 1.0190442631532279 2 35.0 1 2 38.0 1 2 41.0 1.0190442631532279 2 44.0 1 2 47.0 1.0190442631532279 2 50.0 1 2 53.0 1 2 56.0 1.0190442631532279 2 59.0 1 2 62.0 1.0190442631532279 2 65.0 1.0190442631532279 2 68.0 1.0190442631532279 2 71.0 1 2 74.0 1 2 77.0 1 2 80.0 1 2 83.0 1.0190442631532279 2 86.0 1.0190442631532279 2 89.0 1.0190442631532279 2 92.0 1 2 95.0 1 2 98.0 1.0190442631532279 2 </DataArray>
<DataArray Name="forces" NumberOfComponents="3" format="ascii" type="Float32">-0.079750669504502811 -0.0012657427824946783 0.0 0.017095591990011885 0.011758853949614911 0.0 0.060000000000000941 0.0 0.0 0.0 0.0 0.0 0.0 0.0 0.0 0.0 0.0 0.0 0.0 0.0 0.0 0.0 0.0 0.0 0.0 0.0 0.0 0.0 0.0 0.0 0.0 0.0 0.0 0.0 0.0 0.0 0.0 0.0 0.0 0.0 0.0 0.0 0.0 0.0 0.0 0.0 0.0 0.0 0.0 0.0 0.0 0.0 0.0 0.0 0.0 0.0 0.0 0.0 0.0 0.0 0.0 0.0 0.0 0.0 0.0 0.0 0.0 0.0 0.0 0.0 0.0 0.0 0.0 0.0 0.0 0.0 0.0 0.0 0.0 0.0 0.0 0.0 0.0 0.0 0.0 0.0 0.0 0.0 0.0 0.0 0.0 0.0 0.0 0.0 0.0 0.0 0.0 0.0 0.0 0.0 0.0 0.0 </DataArray>
<DataArray Name="radii" format="ascii" type="Float32">1 1.2 1.2 1 1.2 1 1.2 1 1.2 1 1 1.2 1 1 1.2 1 1.2 1 1 1.2 1 1.2 1.2 1.2 1 1 1 1 1.2 1.2 1.2 1 1 1.2 </DataArray>
</PointData>
<CellData/>
</Piece>
</UnstructuredGrid>
</VTKFile>
