<?xml version="1.0" ?>
<VTKFile byte_order="LittleEndian" type="UnstructuredGrid" version="0.1">
<UnstructuredGrid>
<Piece NumberOfCells="0" NumberOfPoints="34">
<Points>
<DataArray NumberOfComponents="3" format="ascii" type="Float32">0.95223175394020187 1 2 2.9882205344684794 1 2 5.495709116040306 1.5409856052610411 2 8.0365925612027116 1 2 11.0 1 2 14.0 1 2 17.0 1 2 20.0 1.5356601824544809 2 23.0 1 2 26.0 1 2 29.0 1 2 32.0 1.5356601824544809 2 35.0 1 2 38.0 1.5356601824544809 2 41.0 1 2 44.0 1 2 47.0 1 2 50.0 1 2 52.557155396924301 1.5356601824544809 2 55.658869314128772 1.5376137749949401 2 59.006319962581934 1.5356601824544809 2 62.009187361046074 1.5376390849065946 2 65.356148182525686 1.5356601824544809 2 68.456936624845412 1.5356601824544809 2 71.0 1 2 74.0 1 2 77.0 1.5356601824544809 2 80.0 1 2 83.0 1 2 85.801120986104678 1.5356601824544809 2 89.006293002133248 1.5356601824544809 2 92.206385116502034 1.5356601824544809 2 95.0 1 2 98.0 1.5356601824544809 2 </DataArray>
</Points>
<Cells>
<DataArray Name="connectivity" format="ascii" type="Int32">0</DataArray>
<DataArray Name="offsets" format="ascii" type="Int32">0</DataArray>
<DataArray Name="types" format="ascii" type="UInt8">1</DataArray>
</Cells>
<PointData>
<DataArray Name="Points" NumberOfComponents="3" format="ascii" type="Float32">0.95223175394020187 1 2 2.9882205344684794 1 2 5.495709116040306 1.5409856052610411 2 8.0365925612027116 1 2 11.0 1 2 14.0 1 2 17.0 1 2 20.0 1.5356601824544809 2 23.0 1 2 26.0 1 2 29.0 1 2 32.0 1.5356601824544809 2 35.0 1 2 38.0 1.5356601824544809 2 41.0 1 2 44.0 1 2 47.0 1 2 50.0 1 2 52.557155396924301 1.5356601824544809 2 55.658869314128772 1.5376137749949401 2 59.006319962581934 1.5356601824544809 2 62.009187361046074 1.5376390849065946 2 65.356148182525686 1.5356601824544809 2 68.456936624845412 1.5356601824544809 2 71.0 1 2 74.0 1 2 77.0 1.5356601824544809 2 80.0 1 2 83.0 1 2 85.801120986104678 1.5356601824544809 2 89.006293002133248 1.5356601824544809 2 92.206385116502034 1.5356601824544809 2 95.0 1 2 98.0 1.5356601824544809 2 </DataArray>
<DataArray Name="forces" NumberOfComponents="3" format="ascii" type="Float32">-0.02451969907868401 0.0 0.0 0.0065396307910812572 -0.0038268046428194644 0.0 -0.0024794207690129622 0.0027335683315681657 0.0 0.0069880993711647511 -0.0016622242423762908 0.0 0.0 0.0 0.0 0.0 0.0 0.0 0.0 0.0 0.0 0.0 0.0 0.0 0.0 0.0 0.0 0.0 0.0 0.0 0.0 0.0 0.0 0.0 0.0 0.0 0.0 0.0 0.0 0.0 0.0 0.0 0.0 0.0 0.0 0.0 0.0 0.0 0.0 0.0 0.0 0.0 0.0 0.0 0.0 0.0 0.0 -0.050704918795348941 0.0010027896179076426 0.0 0.051330540895282883 0.0 0.0 -0.050528993077699043 0.0010157813324599787 0.0 0.051175402295602357 0.0 0.0 0.0 0.0 0.0 0.0 0.0 0.0 0.0 0.0 0.0 0.0 0.0 0.0 0.0 0.0 0.0 0.0 0.0 0.0 0.0 0.0 0.0 0.0 0.0 0.0 0.0 0.0 0.0 0.0 0.0 0.0 0.0 0.0 0.0 </DataArray>
<DataArray Name="radii" format="ascii" type="Float32">1 1 1.5999999999999999 1 1 1 1 1.5999999999999999 1 1 1 1.5999999999999999 1 1.5999999999999999 1 1 1 1 1.5999999999999999 1.5999999999999999 1.5999999999999999 1.5999999999999999 1.5999999999999999 1.5999999999999999 1 1 1.5999999999999999 1 1 1.5999999999999999 1.5999999999999999 1.5999999999999999 1 1.5999999999999999 </DataArray>
</PointData>
<CellData/>
</Piece>
</UnstructuredGrid>
</VTKFile>
