<?xml version="1.0" ?>
<VTKFile byte_order="LittleEndian" type="UnstructuredGrid" version="0.1">
<UnstructuredGrid>
<Piece NumberOfCells="0" NumberOfPoints="16">
<Points>
<DataArray NumberOfComponents="3" format="ascii" type="Float32">0.99925049652341325 1 0.9918249641199065 3.006956274344625 1 1.0 5.4235851551520424 1 1.0 8.138129474637168 1.1638088526306456 1.2 1.2000263139260094 1.1638088526306456 3.181740771576842 4.4705753913623294 1.3594063999666708 2.6132613464197654 6.8608922068508287 1.1638088526306456 3.2367945648021705 9.0 1 4.0 1.5932900034390274 1 5.4144582293300116 5.1049999999999995 1 5.1999999999999993 7.0 1 6.0 0.97945613889835548 1 7.4393390095855088 4.0 1 7.0 9.0 1 7.0 6.0 1 8.0 3.1313979970969759 1 4.3250135530864746 </DataArray>
</Points>
<Cells>
<DataArray Name="connectivity" format="ascii" type="Int32">0</DataArray>
<DataArray Name="offsets" format="ascii" type="Int32">0</DataArray>
<DataArray Name="types" format="ascii" type="UInt8">1</DataArray>
</Cells>
<PointData>
<DataArray Name="Points" NumberOfComponents="3" format="ascii" type="Float32">0.99925049652341325 1 0.9918249641199065 3.006956274344625 1 1.0 5.4235851551520424 1 1.0 8.138129474637168 1.1638088526306456 1.2 1.2000263139260094 1.1638088526306456 3.181740771576842 4.4705753913623294 1.3594063999666708 2.6132613464197654 6.8608922068508287 1.1638088526306456 3.2367945648021705 9.0 1 4.0 1.5932900034390274 1 5.4144582293300116 5.1049999999999995 1 5.1999999999999993 7.0 1 6.0 0.97945613889835548 1 7.4393390095855088 4.0 1 7.0 9.0 1 7.0 6.0 1 8.0 3.1313979970969759 1 4.3250135530864746 </DataArray>
<DataArray Name="forces" NumberOfComponents="3" format="ascii" type="Float32">-0.00027256169098704649 -0.00022321072160621901 -0.0029729036261515792 0.0 0.0 0.0 0.0 0.0 0.0 0.0 0.0 0.0 0.0 0.0 0.0 0.028450399987091386 0.0086762776579988512 -0.036365633983218543 0.0 0.0 0.0 0.0 0.0 0.0 0.0074709053342448418 0.0 -0.024644604177615069 0.0 0.0 0.0 0.0 0.0 0.0 -0.0074709053342448418 0.0 0.024644604177615069 0.0 0.0 0.0 0.0 0.0 0.0 0.0 0.0 0.0 -0.028450399987091386 -0.0086762776579988512 0.036365633983218543 </DataArray>
<DataArray Name="radii" format="ascii" type="Float32">1 1 1 1.2 1.2 1 1.2 1 1 1 1 1 1 1 1 1 </DataArray>
</PointData>
<CellData/>
</Piece>
</UnstructuredGrid>
</VTKFile>
