<?xml version="1.0" ?>
<VTKFile byte_order="LittleEndian" type="UnstructuredGrid" version="0.1">
<UnstructuredGrid>
<Piece NumberOfCells="0" NumberOfPoints="34">
<Points>
<DataArray NumberOfComponents="3" format="ascii" type="Float32">1.9658359213500127 2.0170820393249937 2.0 4.0341640786499875 0.98291796067500636 2.0 7.0 1.0 2.0 10.0 1.0 2.0 12.949999999999999 2.0 2.0 16.050000000000001 2.0 2.0 19.0 1.0 2.0 22.0 2.0 2.0 25.0 1.0 2.0 28.0 1.0 2.0 30.949999999999999 2.0 2.0 34.0 2.0 2.0 37.049999999999997 2.0 2.0 40.0 1.0 2.0 42.950000000000003 2.0 2.0 46.049999999999997 2.0 2.0 49.0 1.0 2.0 52.0 2.0 2.0 55.0 1.0 2.0 58.0 2.0 2.0 61.0 1.0 2.0 64.0 2.0 2.0 67.0 1.0 2.0 70.0 2.0 2.0 73.0 1.0 2.0 76.0 1.0 2.0 79.0 1.0 2.0 82.0 1.0 2.0 84.950000000000003 2.0 2.0 88.0 2.0 2.0 91.0 2.0 2.0 94.0 2.0 2.0 96.950000000000003 2.0 2.0 99.099999999999994 2.0 2.0 </DataArray>
</Points>
<Cells>
<DataArray Name="connectivity" format="ascii" type="Int32">0</DataArray>
<DataArray Name="offsets" format="ascii" type="Int32">0</DataArray>
<DataArray Name="types" format="ascii" type="UInt8">1</DataArray>
</Cells>
<PointData>
<DataArray Name="Points" NumberOfComponents="3" format="ascii" type="Float32">1.9658359213500127 2.0170820393249937 2.0 4.0341640786499875 0.98291796067500636 2.0 7.0 1.0 2.0 10.0 1.0 2.0 12.949999999999999 2.0 2.0 16.050000000000001 2.0 2.0 19.0 1.0 2.0 22.0 2.0 2.0 25.0 1.0 2.0 28.0 1.0 2.0 30.949999999999999 2.0 2.0 34.0 2.0 2.0 37.049999999999997 2.0 2.0 40.0 1.0 2.0 42.950000000000003 2.0 2.0 46.049999999999997 2.0 2.0 49.0 1.0 2.0 52.0 2.0 2.0 55.0 1.0 2.0 58.0 2.0 2.0 61.0 1.0 2.0 64.0 2.0 2.0 67.0 1.0 2.0 70.0 2.0 2.0 73.0 1.0 2.0 76.0 1.0 2.0 79.0 1.0 2.0 82.0 1.0 2.0 84.950000000000003 2.0 2.0 88.0 2.0 2.0 91.0 2.0 2.0 94.0 2.0 2.0 96.950000000000003 2.0 2.0 99.099999999999994 2.0 2.0 </DataArray>
<DataArray Name="forces" NumberOfComponents="3" format="ascii" type="Float32">-0.68328157299974757 0.34164078649987378 0.0 0.68328157299974757 -0.34164078649987378 0.0 0.0 0.0 0.0 0.0 0.0 0.0 -1.0 0.0 0.0 1.0 0.0 0.0 0.0 0.0 0.0 0.0 0.0 0.0 0.0 0.0 0.0 0.0 0.0 0.0 -1.0 0.0 0.0 0.0 0.0 0.0 1.0 0.0 0.0 0.0 0.0 0.0 -1.0 0.0 0.0 1.0 0.0 0.0 0.0 0.0 0.0 0.0 0.0 0.0 0.0 0.0 0.0 0.0 0.0 0.0 0.0 0.0 0.0 0.0 0.0 0.0 0.0 0.0 0.0 0.0 0.0 0.0 0.0 0.0 0.0 0.0 0.0 0.0 0.0 0.0 0.0 0.0 0.0 0.0 -1.0 0.0 0.0 0.0 0.0 0.0 0.0 0.0 0.0 0.0 0.0 0.0 -1.0 0.0 0.0 2.0 0.0 0.0 </DataArray>
<DataArray Name="radii" format="ascii" type="Float32">2 1 1 1 2 2 1 2 1 1 2 2 2 1 2 2 1 2 1 2 1 2 1 2 1 1 1 1 2 2 2 2 2 2 </DataArray>
</PointData>
<CellData/>
</Piece>
</UnstructuredGrid>
</VTKFile>
