<?xml version="1.0" ?>
<VTKFile byte_order="LittleEndian" type="UnstructuredGrid" version="0.1">
<UnstructuredGrid>
<Piece NumberOfCells="0" NumberOfPoints="63">
<Points>
<DataArray NumberOfComponents="3" format="ascii" type="Float32">0.96418973716759426 2.6599925979608821 2.0 4.0157048988579982 1 2.0 7.6757041846113472 1 2.0 9.1210740116248843 2.1685280039451125 2.0 12.539047276759728 1.1038038182237702 2.0 16.230096900573653 1.0 2.0 19.0 1.0 2.0 22.0 1.0 2.0 25.482926785227992 1.267275016118403 2.0 28.0 1.0 2.0 30.720045093369041 1.0 2.0 34.893478822784118 3.2941242474052239 2.0 36.798369989652713 1.0 2.0 38.565380800795076 4.4906879694540702 2.0 42.996570474179485 1.182450005867854 2.0 46.525895310402731 2.376336081820039 2.0 48.303858119131895 1.4599351236965565 2.0 54.28949551720639 2.5112950529796034 2.0 55.364191355720919 1 2.0 58.0 1.0 2.0 60.220901538754156 1.0243556437490278 2.0 63.98295882351276 1.0 2.0 66.951042194753086 2.7501504441537103 2.0 69.934060938385286 2.4389394341222741 2.0 73.324365876062046 1.0 2.0 75.282640649945122 2.1185215396689605 2.0 79.08558008783541 1 2.0 82.0 1.0 2.0 84.994574993744322 1 2.0 88.721141821099536 1.9965204688192446 2.0 91.0 1.0 2.0 93.065805720942279 1.4649887980419047 2.0 96.930315340641812 1 2.0 99.798320160781856 1.2315177921938132 2.0 2.280012335714944 1.3163677424666202 2.0 7.2169070909582995 5.1801840246035731 2.0 11.026106549378822 2.3652548676796745 2.0 13.83701150163308 3.0822746137199628 2.0 23.482848898120814 3.3617950789846476 2.0 33.114734080673188 1.4660299487533182 2.0 39.302015359956776 1 2.0 43.463442822532471 3.1172855198367762 2.0 44.995674710239363 1.0880526356514348 2.0 47.686727029991808 4.4145943166203585 2.0 51.612786195059392 1 2.0 63.17515388028918 2.8451818065716115 2.0 65.982990440556136 1.0 2.0 71.323141492754303 1.0 2.0 77.2596186366994 1.8159853946049662 2.0 86.721183385732814 2.0093671520227798 2.0 95.156054876638493 3.6860297929389456 2.0 97.860882734955283 3.0378524829324873 2.0 5.6195783447562118 2.9983192918727415 2.0 15.839800034668823 3.1231307155643973 2.0 25.347055895622965 4.094510973938398 2.0 32.882601575057009 3.4554326761790533 2.0 39.849289994228684 2.8441679859296527 2.0 41.451047847155202 5.3307021760587876 2.0 50.538998644666215 4.4848057029058914 2.0 52.526439597678113 2.5769915478518457 2.0 60.423714891412438 4.0245949052857757 2.0 95.052981970531306 1.6888249770300394 2.0 100.24203836999618 4.8505684237566307 2.0 </DataArray>
</Points>
<Cells>
<DataArray Name="connectivity" format="ascii" type="Int32">0</DataArray>
<DataArray Name="offsets" format="ascii" type="Int32">0</DataArray>
<DataArray Name="types" format="ascii" type="UInt8">1</DataArray>
</Cells>
<PointData>
<DataArray Name="Points" NumberOfComponents="3" format="ascii" type="Float32">0.96418973716759426 2.6599925979608821 2.0 4.0157048988579982 1 2.0 7.6757041846113472 1 2.0 9.1210740116248843 2.1685280039451125 2.0 12.539047276759728 1.1038038182237702 2.0 16.230096900573653 1.0 2.0 19.0 1.0 2.0 22.0 1.0 2.0 25.482926785227992 1.267275016118403 2.0 28.0 1.0 2.0 30.720045093369041 1.0 2.0 34.893478822784118 3.2941242474052239 2.0 36.798369989652713 1.0 2.0 38.565380800795076 4.4906879694540702 2.0 42.996570474179485 1.182450005867854 2.0 46.525895310402731 2.376336081820039 2.0 48.303858119131895 1.4599351236965565 2.0 54.28949551720639 2.5112950529796034 2.0 55.364191355720919 1 2.0 58.0 1.0 2.0 60.220901538754156 1.0243556437490278 2.0 63.98295882351276 1.0 2.0 66.951042194753086 2.7501504441537103 2.0 69.934060938385286 2.4389394341222741 2.0 73.324365876062046 1.0 2.0 75.282640649945122 2.1185215396689605 2.0 79.08558008783541 1 2.0 82.0 1.0 2.0 84.994574993744322 1 2.0 88.721141821099536 1.9965204688192446 2.0 91.0 1.0 2.0 93.065805720942279 1.4649887980419047 2.0 96.930315340641812 1 2.0 99.798320160781856 1.2315177921938132 2.0 2.280012335714944 1.3163677424666202 2.0 7.2169070909582995 5.1801840246035731 2.0 11.026106549378822 2.3652548676796745 2.0 13.83701150163308 3.0822746137199628 2.0 23.482848898120814 3.3617950789846476 2.0 33.114734080673188 1.4660299487533182 2.0 39.302015359956776 1 2.0 43.463442822532471 3.1172855198367762 2.0 44.995674710239363 1.0880526356514348 2.0 47.686727029991808 4.4145943166203585 2.0 51.612786195059392 1 2.0 63.17515388028918 2.8451818065716115 2.0 65.982990440556136 1.0 2.0 71.323141492754303 1.0 2.0 77.2596186366994 1.8159853946049662 2.0 86.721183385732814 2.0093671520227798 2.0 95.156054876638493 3.6860297929389456 2.0 97.860882734955283 3.0378524829324873 2.0 5.6195783447562118 2.9983192918727415 2.0 15.839800034668823 3.1231307155643973 2.0 25.347055895622965 4.094510973938398 2.0 32.882601575057009 3.4554326761790533 2.0 39.849289994228684 2.8441679859296527 2.0 41.451047847155202 5.3307021760587876 2.0 50.538998644666215 4.4848057029058914 2.0 52.526439597678113 2.5769915478518457 2.0 60.423714891412438 4.0245949052857757 2.0 95.052981970531306 1.6888249770300394 2.0 100.24203836999618 4.8505684237566307 2.0 </DataArray>
<DataArray Name="forces" NumberOfComponents="3" format="ascii" type="Float32">-0.10467297735943276 0.10154737277137692 0.0 -0.072508428803191305 -0.44304122330219009 0.0 0.0089299117483796486 -0.24065962914226224 0.0 0.044264500327988565 0.09594845997638185 0.0 0.021302627687754198 -0.017358017875770695 0.0 0.0 0.0 0.0 0.0 0.0 0.0 0.0 0.0 0.0 0.0 0.0 0.0 0.0 0.0 0.0 0.0 0.0 0.0 0.0 0.0 0.0 0.0 0.0 0.0 -0.0068429843036020297 -0.0019445720623285424 0.0 -0.0030715464100898866 -0.012958440670927043 0.0 0.0 0.0 0.0 0.0 0.0 0.0 0.18467822909838005 0.10698974157002475 0.0 0.094081267769932211 -0.12547897779711364 0.0 0.0 0.0 0.0 0.0 0.0 0.0 0.0 0.0 0.0 0.0 0.0 0.0 0.0 0.0 0.0 0.0 0.0 0.0 -1.0949785759650491e-05 1.6756474418413863e-06 0.0 1.1022162053610896e-05 -4.9255857442690057e-06 0.0 0.0 0.0 0.0 -4.6398546431280416e-07 -2.7124372169424476e-07 0.0 4.647189271853484e-07 -2.9850886560585261e-09 0.0 0.0 0.0 0.0 -0.0003694250203608121 -4.1615263106687486e-05 0.0 0.00038787051021768159 -0.00014233072406797789 0.0 0.0 0.0 0.0 -0.14848219639686105 -0.052065364914327887 0.0 0.20535690638028917 0.29229882463948592 0.0 0.068699368689164458 0.027799559248109451 0.0 0.0 0.0 0.0 0.0 0.0 0.0 0.0 0.0 0.0 -0.027311911811271572 -0.092822902602969631 0.0 0.022252849346446772 -0.0079435954028362465 0.0 0.0 0.0 0.0 -0.2110247577854365 0.00036474159956250806 0.0 -0.091373208612644752 -0.16772628408933446 0.0 0.018730380644262939 -0.0080288374065544486 0.0 0.0 0.0 0.0 0.0 0.0 0.0 -7.2376293960404724e-08 3.2499383024276193e-06 0.0 -7.3346287254424857e-10 2.742288103503033e-07 0.0 1.2192699005045995e-05 0.00023627523857189473 0.0 -0.018567986229118962 -0.014135356854130679 0.0 -0.022889712274090923 0.2355300185991967 0.0 0.0 0.0 0.0 0.0 0.0 0.0 0.0 0.0 0.0 0.0020451985076018614 0.0535543238579331 0.0 0.012928394670914854 0.062115186881128368 0.0 -0.025997106558966282 0.21968218537002854 0.0 0.049635576088735284 -0.033831406653167695 0.0 -0.018730380644262939 0.0080288374065544486 0.0 -3.0638188861915487e-05 -5.2329251397229362e-05 0.0 0.018567986229118962 0.014135356854130679 0.0 </DataArray>
<DataArray Name="radii" format="ascii" type="Float32">1 1 1 1 1 1 1 1 1 1 1 1 1 1 1 1 1 1 1 1 1 1 1 1 1 1 1 1 1 1 1 1 1 1 1 1 1 1 1 1 1 1 1 1 1 1 1 1 1 1 1 1 2 1 1 1 1 2 2 1 2 1 2 </DataArray>
</PointData>
<CellData/>
</Piece>
</UnstructuredGrid>
</VTKFile>
