<?xml version="1.0" ?>
<VTKFile byte_order="LittleEndian" type="UnstructuredGrid" version="0.1">
<UnstructuredGrid>
<Piece NumberOfCells="0" NumberOfPoints="15">
<Points>
<DataArray NumberOfComponents="3" format="ascii" type="Float32">0.95254708295546364 1 0.99338054437690182 3.2415094810402185 1.3602126165941772 1.3142037901192476 5.557291907757552 1 0.99878993248064452 8.290215619776701 1.3551704909172264 1.3664999574145387 1.3631845082836294 1.3554113790657782 3.4066744725926501 4.4894290061199635 1.3710711403957108 3.6917250390531162 6.6611673849054913 1 3.0394300998096573 8.6999999999999993 1.3623651730414117 4.1362484748516994 2.5284297049879232 1 5.4150412485103008 4.4099635548223883 1 5.8997971053318636 6.6675048384096254 1.3596085704680909 5.9648059882928219 1.3651361765719054 1.3580749752954917 7.454521063870561 3.6897959070187056 1 7.6537141614470068 8.6135348660265549 1.3507398271917119 7.9292330077299971 5.8322815768740126 1.3525294256679545 8.5942717531691279 </DataArray>
</Points>
<Cells>
<DataArray Name="connectivity" format="ascii" type="Int32">0</DataArray>
<DataArray Name="offsets" format="ascii" type="Int32">0</DataArray>
<DataArray Name="types" format="ascii" type="UInt8">1</DataArray>
</Cells>
<PointData>
<DataArray Name="Points" NumberOfComponents="3" format="ascii" type="Float32">0.95254708295546364 1 0.99338054437690182 3.2415094810402185 1.3602126165941772 1.3142037901192476 5.557291907757552 1 0.99878993248064452 8.290215619776701 1.3551704909172264 1.3664999574145387 1.3631845082836294 1.3554113790657782 3.4066744725926501 4.4894290061199635 1.3710711403957108 3.6917250390531162 6.6611673849054913 1 3.0394300998096573 8.6999999999999993 1.3623651730414117 4.1362484748516994 2.5284297049879232 1 5.4150412485103008 4.4099635548223883 1 5.8997971053318636 6.6675048384096254 1.3596085704680909 5.9648059882928219 1.3651361765719054 1.3580749752954917 7.454521063870561 3.6897959070187056 1 7.6537141614470068 8.6135348660265549 1.3507398271917119 7.9292330077299971 5.8322815768740126 1.3525294256679545 8.5942717531691279 </DataArray>
<DataArray Name="forces" NumberOfComponents="3" format="ascii" type="Float32">-0.11185958433137247 -0.01803176917463449 -0.015603878551971611 0.014406107448944119 0.022329971496249913 -0.20224527747073753 0.016507846179253147 -0.0028524621489751339 -0.0028524621489751339 0.03414899318851982 0.010444293702386734 -0.078968819454787009 -0.086784245454989237 0.011012133360000882 0.0055556205221453034 0.005005816554494026 0.047926500319796617 0.045975138122008652 0.0054250773216741044 -0.037743328594153198 -0.016298747302698941 0.23572751960935917 0.027404139417506992 0.018659625170813057 -0.012626077534552443 -0.014858440654178785 0.019381750826664441 -0.023188903021944235 -0.048282864061615929 0.071382185328462813 -0.0096520254668142642 0.020906068545930117 0.03803934309130811 -0.082183626208033503 0.017290962684713054 0.024852781631517409 -0.0059706071029553866 -0.016306643261476451 0.092854940557516849 0.03190540396684749 0.0 0.032540059322801865 0.0089112660840113458 0.0042185760990133669 0.052472527999578349 </DataArray>
<DataArray Name="radii" format="ascii" type="Float32">1 1.4 1 1.4 1.4 1.4 1 1.4 1 1 1.4 1.4 1 1.4 1.4 </DataArray>
</PointData>
<CellData/>
</Piece>
</UnstructuredGrid>
</VTKFile>
