<?xml version="1.0" ?>
<VTKFile byte_order="LittleEndian" type="UnstructuredGrid" version="0.1">
<UnstructuredGrid>
<Piece NumberOfCells="0" NumberOfPoints="52">
<Points>
<DataArray NumberOfComponents="3" format="ascii" type="Float32">1.0188571067582413 2.3904429171722308 2.0 4.7187038319844152 1.72715228342072 2.0 7.1592642080760935 1.0 2.0 8.9411313751896113 1.9644381670129847 2.0 12.721435100920763 1.4228768411140675 2.0 16.063077218416517 1.0 2.0 19.0 1.0 2.0 22.0 1.0 2.0 25.279945450248867 1.5752502619532895 2.0 28.0 1.0 2.0 31.0 1.0 2.0 34.300869042430769 2.8000327512792449 2.0 36.907672875470602 1.0 2.0 39.341976424330227 2.9649071733653418 2.0 42.971318532495843 1.517317993557165 2.0 46.499440322010201 2.350834235483553 2.0 48.550674818221871 1.7269370454145894 2.0 53.254436800265736 2.2058467850488745 2.0 55.099358309872528 1.0 2.0 58.0 1.0 2.0 60.499575977159431 1.4690376587851177 2.0 63.942967700209373 1.0 2.0 66.951042194753086 2.7501504441537103 2.0 69.937914230148564 2.4349419786840163 2.0 73.324365876062046 1 2.0 75.291000962441075 2.1172372077522073 2.0 79.078680029145247 1 2.0 82.0 1.0 2.0 84.995194566233579 1 2.0 88.720198378092107 1.9965264207028364 2.0 91.0 1.0 2.0 93.494149818093419 1.7247053882317074 2.0 96.709591514897866 1.0 2.0 99.628992885230815 1.5776567254315543 2.0 2.7727437750035859 1.4850080151150404 2.0 6.2592741953380253 2.9579915014434413 2.0 10.909645482338201 2.2616989612717235 2.0 14.281204257728087 2.6722171531349375 2.0 24.177959434294298 3.2472484001324831 2.0 33.426882051853539 1 2.0 39.622181769696638 1 2.0 42.094221222197106 3.3112267118819676 2.0 44.928774526137431 1.118719699561104 2.0 50.147982829018595 2.9491048331946481 2.0 51.415800954656071 1.3776781635054829 2.0 61.873760642338276 2.9270817849309103 2.0 65.975964636151573 1 2.0 71.319288200991025 1 2.0 77.258158382893598 1.8141844800379956 2.0 86.721507256250959 2.0089990169787404 2.0 95.214220636514142 2.750498983709039 2.0 98.671305329007296 3.3370788966959424 2.0 </DataArray>
</Points>
<Cells>
<DataArray Name="connectivity" format="ascii" type="Int32">0</DataArray>
<DataArray Name="offsets" format="ascii" type="Int32">0</DataArray>
<DataArray Name="types" format="ascii" type="UInt8">1</DataArray>
</Cells>
<PointData>
<DataArray Name="Points" NumberOfComponents="3" format="ascii" type="Float32">1.0188571067582413 2.3904429171722308 2.0 4.7187038319844152 1.72715228342072 2.0 7.1592642080760935 1.0 2.0 8.9411313751896113 1.9644381670129847 2.0 12.721435100920763 1.4228768411140675 2.0 16.063077218416517 1.0 2.0 19.0 1.0 2.0 22.0 1.0 2.0 25.279945450248867 1.5752502619532895 2.0 28.0 1.0 2.0 31.0 1.0 2.0 34.300869042430769 2.8000327512792449 2.0 36.907672875470602 1.0 2.0 39.341976424330227 2.9649071733653418 2.0 42.971318532495843 1.517317993557165 2.0 46.499440322010201 2.350834235483553 2.0 48.550674818221871 1.7269370454145894 2.0 53.254436800265736 2.2058467850488745 2.0 55.099358309872528 1.0 2.0 58.0 1.0 2.0 60.499575977159431 1.4690376587851177 2.0 63.942967700209373 1.0 2.0 66.951042194753086 2.7501504441537103 2.0 69.937914230148564 2.4349419786840163 2.0 73.324365876062046 1 2.0 75.291000962441075 2.1172372077522073 2.0 79.078680029145247 1 2.0 82.0 1.0 2.0 84.995194566233579 1 2.0 88.720198378092107 1.9965264207028364 2.0 91.0 1.0 2.0 93.494149818093419 1.7247053882317074 2.0 96.709591514897866 1.0 2.0 99.628992885230815 1.5776567254315543 2.0 2.7727437750035859 1.4850080151150404 2.0 6.2592741953380253 2.9579915014434413 2.0 10.909645482338201 2.2616989612717235 2.0 14.281204257728087 2.6722171531349375 2.0 24.177959434294298 3.2472484001324831 2.0 33.426882051853539 1 2.0 39.622181769696638 1 2.0 42.094221222197106 3.3112267118819676 2.0 44.928774526137431 1.118719699561104 2.0 50.147982829018595 2.9491048331946481 2.0 51.415800954656071 1.3776781635054829 2.0 61.873760642338276 2.9270817849309103 2.0 65.975964636151573 1 2.0 71.319288200991025 1 2.0 77.258158382893598 1.8141844800379956 2.0 86.721507256250959 2.0089990169787404 2.0 95.214220636514142 2.750498983709039 2.0 98.671305329007296 3.3370788966959424 2.0 </DataArray>
<DataArray Name="forces" NumberOfComponents="3" format="ascii" type="Float32">-0.077224570952721228 0.037112325381625337 0.0 0.052085766736526942 -0.03732141707902293 0.0 0.0 0.0 0.0 -0.04081719810406706 -0.005666463890553212 0.0 0.026392675450157572 -0.038310465761637956 0.0 0.0 0.0 0.0 0.0 0.0 0.0 0.0 0.0 0.0 0.0019258190611867309 -0.0029219661939040029 0.0 0.0 0.0 0.0 0.0 0.0 0.0 0.038461913966189788 0.082312719529259587 0.0 0.0 0.0 0.0 -0.015867139859273498 0.11692914306599543 0.0 -0.03917607138315235 -0.022827145080680407 0.0 0.032305338579374315 0.024384065888768923 0.0 -0.014979781171100203 -0.011057821914502533 0.0 0.03408385965664279 0.014681720143438926 0.0 0.0 0.0 0.0 0.0 0.0 0.0 -0.0034425496860378169 -0.003652630884248153 0.0 0.0 0.0 0.0 0.032015529713450765 0.059124358549573139 0.0 -0.026689534897371296 0.027380915638301889 0.0 0.039292455317816916 -0.00013480261756068524 0.0 -0.036079959199169828 0.0057382920687005191 0.0 0.039346892243586944 -0.017730226381316532 0.0 0.0 0.0 0.0 -0.0056189525236840778 -0.0032851926392679165 0.0 0.0049544358128813049 -2.3895674014626027e-05 0.0 0.0 0.0 0.0 -0.0032909111969169477 -0.0019625910706290023 0.0 0.0 0.0 0.0 0.0021402454849146872 -0.0039319664682252184 0.0 -0.04393385714441414 -0.05203486296230253 0.0 0.069072661360608426 0.052243954659700123 0.0 -0.0076916100130626705 0.026973026885965107 0.0 0.022116132666972158 0.01700390276622606 0.0 -0.0019258190611867309 0.0029219661939040029 0.0 -0.038461913966189788 -0.082312719529259587 0.0 0.015867139859273498 -0.11692914306599543 0.0 -0.017651251232839952 0.034395006842052288 0.0 0.024521984036617983 -0.035951927650140804 0.0 -0.011229610468660054 0.042062452308301544 0.0 -0.0078744680168825326 -0.045686350537237935 0.0 0.0034425496860378169 0.003652630884248153 0.0 -0.032015529713450765 -0.059124358549573139 0.0 -0.012602920420445619 -0.027246113020741203 0.0 -0.0032669330444171155 0.011991934312616012 0.0 0.00066451671080277296 0.0033090883132825427 0.0 0.0032909111969169477 0.0019625910706290023 0.0 -0.0021402454849146872 0.0039319664682252184 0.0 </DataArray>
<DataArray Name="radii" format="ascii" type="Float32">1 1 1 1 1 1 1 1 1 1 1 1 1 1 1 1 1 1 1 1 1 1 1 1 1 1 1 1 1 1 1 1 1 1 1 1 1 1 1 1 1 1 1 1 1 1 1 1 1 1 1 1 </DataArray>
</PointData>
<CellData/>
</Piece>
</UnstructuredGrid>
</VTKFile>
