<?xml version="1.0" ?>
<VTKFile byte_order="LittleEndian" type="UnstructuredGrid" version="0.1">
<UnstructuredGrid>
<Piece NumberOfCells="0" NumberOfPoints="25">
<Points>
<DataArray NumberOfComponents="3" format="ascii" type="Float32">2.1527427839577111 2.0685764379241918 2.1205867812600743 4.2993929335916441 2.0681392543540027 2.1177535988860203 7.8579937420959522 2.092797051932743 2.1475058576735462 9.0 1 0.98894033084270017 2.1320857161056335 2.0808392843708616 5.7393564648814754 4.4414000045926159 2.0688649685961069 5.6719945851998395 5.9337040247112309 3.4661101341180713 4.0740136759790442 7.8646688027761948 2.0817353037883968 6.025826489175321 1.782332051496146 1 7.0724403873107615 2.1490630446231056 2.1226026953527088 7.8436230096784367 5.7816859760748862 1 6.26975350893784 0.97483554294526376 1 8.5368384246342739 2.2198395017836203 1 9.0 7.8751336569025865 2.0885332961758145 7.8490363207756735 6.6558368918780397 2.0680313973440589 7.8678629288329809 0.97815629284837269 1 3.6119254179649705 5.7119526460087151 1 3.9586176413565135 6.4923699952566407 2.0715648795270885 2.1278957316937754 2.1417093235831719 3.4715217853957472 3.7467395803833949 3.3625225677513968 2.0467273626978995 3.9800724051620269 7.855393008516562 2.0811733490475399 4.4637126600890085 9.0 1 3.7935069251047415 4.0445549280764013 2.0578398914317151 7.861586750434431 9.0 1 9.0 5.0102892908431382 3.4955929447194887 7.843935260549121 </DataArray>
</Points>
<Cells>
<DataArray Name="connectivity" format="ascii" type="Int32">0</DataArray>
<DataArray Name="offsets" format="ascii" type="Int32">0</DataArray>
<DataArray Name="types" format="ascii" type="UInt8">1</DataArray>
</Cells>
<PointData>
<DataArray Name="Points" NumberOfComponents="3" format="ascii" type="Float32">2.1527427839577111 2.0685764379241918 2.1205867812600743 4.2993929335916441 2.0681392543540027 2.1177535988860203 7.8579937420959522 2.092797051932743 2.1475058576735462 9.0 1 0.98894033084270017 2.1320857161056335 2.0808392843708616 5.7393564648814754 4.4414000045926159 2.0688649685961069 5.6719945851998395 5.9337040247112309 3.4661101341180713 4.0740136759790442 7.8646688027761948 2.0817353037883968 6.025826489175321 1.782332051496146 1 7.0724403873107615 2.1490630446231056 2.1226026953527088 7.8436230096784367 5.7816859760748862 1 6.26975350893784 0.97483554294526376 1 8.5368384246342739 2.2198395017836203 1 9.0 7.8751336569025865 2.0885332961758145 7.8490363207756735 6.6558368918780397 2.0680313973440589 7.8678629288329809 0.97815629284837269 1 3.6119254179649705 5.7119526460087151 1 3.9586176413565135 6.4923699952566407 2.0715648795270885 2.1278957316937754 2.1417093235831719 3.4715217853957472 3.7467395803833949 3.3625225677513968 2.0467273626978995 3.9800724051620269 7.855393008516562 2.0811733490475399 4.4637126600890085 9.0 1 3.7935069251047415 4.0445549280764013 2.0578398914317151 7.861586750434431 9.0 1 9.0 5.0102892908431382 3.4955929447194887 7.843935260549121 </DataArray>
<DataArray Name="forces" NumberOfComponents="3" format="ascii" type="Float32">-3.1788427094963332 -0.65794313837664564 -5.3418747986159012 0.069730439587092352 -0.68735108749413765 -5.5324539712522078 3.9010546895770304 0.97130057737059361 -3.5311140943297126 0.86152666619141238 -0.73909724858370263 -0.7439487895068404 -4.568378002527262 0.16693956291888684 0.35905630169623537 -0.11932021738664544 -0.63853459721198524 -0.095356295926050327 0.39405418802631043 6.7266821360185505 0.52508295813307415 4.3500648039233019 0.22721194101347808 -0.035964816681047895 -1.0968025075292396 -2.5580735712700635 -0.49434373301514289 -3.4263670779692901 2.976231468826827 2.9343811992330155 -0.24387814410955716 -2.4075166218006014 -0.83126070378572015 -1.6927330373270064 -0.87942842247174979 0.58649612541517782 0.061944967585912947 -1.4139611993416865 1.7243889695880632 5.0540022770036845 0.68449128054580488 3.2985174297779447 0.0084048171340087574 -0.69460628571448457 4.5649235107870751 -1.4693567468127213 -1.39337507693409 0.15323377914595659 0.11713079900144818 -2.4992460615403442 0.6073399386638102 -0.24577425328243718 -0.45692017092924664 -4.8502249354616866 -3.921028517495134 6.1552936291970823 -0.26542699387268109 -0.20045580170669886 -2.1276609785088927 0.022976975697877877 3.7261116084867556 0.18941103184775154 -0.34013576557423408 1.5222548154986133 -1.522254815498614 -0.22682049263657339 -0.41068529180737778 -1.3801564933113926 4.1427449396271543 0.89532680533211995 -0.77436838426340948 0.77436838426340926 -0.083558553511611677 6.4232799097883344 2.9553853227708693 </DataArray>
<DataArray Name="radii" format="ascii" type="Float32">2.1999999999999997 2.1999999999999997 2.1999999999999997 1 2.1999999999999997 2.1999999999999997 2.1999999999999997 2.1999999999999997 1 2.1999999999999997 1 1 1 2.1999999999999997 2.1999999999999997 1 1 2.1999999999999997 2.1999999999999997 2.1999999999999997 2.1999999999999997 1 2.1999999999999997 1 2.1999999999999997 </DataArray>
</PointData>
<CellData/>
</Piece>
</UnstructuredGrid>
</VTKFile>
