<?xml version="1.0" ?>
<VTKFile byte_order="LittleEndian" type="UnstructuredGrid" version="0.1">
<UnstructuredGrid>
<Piece NumberOfCells="0" NumberOfPoints="58">
<Points>
<DataArray NumberOfComponents="3" format="ascii" type="Float32">1.155790083922535 1.1508045613191671 1.0975558571380333 3.0023790738345064 1.1528905527706659 2.476051035814649 6.7514326397946549 1 0.93384470978099965 9.0 1 0.96437582575954262 1.1633887053023375 1.1602278549886071 3.710628228140914 5.0585922289966829 1 0.97081694054958789 9.0 1 3.0475494170601216 9.0 1 4.8049824091370041 1.154177334975717 1.1590230411605218 7.6273285429822417 6.2647525684687642 4.1188054743944651 5.4879258793918098 8.6285206472838354 1.3346357971503899 6.9179987472633062 1.166051227890601 1.1324999459951459 8.9000000000000004 3.1981926704799637 1.1648063864887508 8.8748720699468979 8.8612160222911047 1.1308827834429598 8.8567565126212084 5.0225637491795805 1 9.0 3.1515039359328689 1.1514373880977031 5.5385313680483996 0.97716041490356909 3.0548685237735409 6.7636899367155108 4.7825427764296808 1 5.0888680179476999 6.9816155191535261 1.1592095779077207 8.8640585411103032 2.9473019919612806 3.1974188387172466 7.5377320916344601 3.9515698506556589 2.8248536508810327 0.95953699828079109 7.6070346497673391 1 5.4662871784902549 4.8858681015709164 1.1266487722096044 2.9497594051857083 6.1701477440090065 1.1416235050706025 6.0296200957386343 1.1637824419975635 1.1597991323572296 4.8944449221011537 8.2118575416860029 3.3583875843077577 8.6538790607701515 5.774271830696958 2.7585380118719423 1.0798056702231438 6.2169456960562162 1 4.1946751888777394 3.7781992832958315 3.3722571696060801 4.5914080996487066 0.97103821931829015 3.1030393077875074 2.6565377296793544 8.0208708072717485 2.5552735522102212 3.217063765054375 8.6209792973917114 3.8069756392315948 6.2498987016249155 3.2868610735166395 1.129025409132089 1.1188254279567513 1.1535388954989005 1.1418574818939151 2.4321272383882855 1.1400449879239045 1.1413306907225709 6.1740037205107603 4.8712455669621715 2.8199715965510439 8.8034858076087321 1.1853823874158587 3.2123485201967505 8.8265265721404376 2.8997138962028735 1.1375760355501785 7.130967668167747 6.5274528024873408 2.774800063090415 7.2160694097923628 4.5580065443938125 2.8211332986962074 6.2518755709581812 4.255598570243829 3.0061547312956693 2.6994299197083587 4.5827761875016586 1.1295618153714375 7.1909301000931647 3.3155396868127713 1.1506858758148271 4.0300431904953218 7.5856117768763092 2.5356086846568857 0.97987176765483552 7.8869075570104465 1 2.0420858488880644 6.3113756812229322 1 2.4047593692662863 9.0 2.5359355661616503 1.9070820641431554 9.0 2.4392856664358034 4.6900942380865551 6.1528814117563346 1 7.6912346424393814 2.1981300290160828 2.9351768285187654 5.4495462497473959 5.4090280886816666 2.5011384827459739 4.4505257576587569 2.0798354314480014 2.9306498960533269 1.1045159499922201 7.2190863171512616 2.4868527604818884 4.9060678544807734 6.370308671061248 2.654335341529523 2.8791716591645957 7.5560364237803181 1 3.7400811917331609 5.4720362027838565 4.2236861060404056 3.6005848236159359 2.3752772076094395 2.8615511921361185 3.5680159121823345 8.3597094857577012 4.136212178494211 4.0286789402631999 </DataArray>
</Points>
<Cells>
<DataArray Name="connectivity" format="ascii" type="Int32">0</DataArray>
<DataArray Name="offsets" format="ascii" type="Int32">0</DataArray>
<DataArray Name="types" format="ascii" type="UInt8">1</DataArray>
</Cells>
<PointData>
<DataArray Name="Points" NumberOfComponents="3" format="ascii" type="Float32">1.155790083922535 1.1508045613191671 1.0975558571380333 3.0023790738345064 1.1528905527706659 2.476051035814649 6.7514326397946549 1 0.93384470978099965 9.0 1 0.96437582575954262 1.1633887053023375 1.1602278549886071 3.710628228140914 5.0585922289966829 1 0.97081694054958789 9.0 1 3.0475494170601216 9.0 1 4.8049824091370041 1.154177334975717 1.1590230411605218 7.6273285429822417 6.2647525684687642 4.1188054743944651 5.4879258793918098 8.6285206472838354 1.3346357971503899 6.9179987472633062 1.166051227890601 1.1324999459951459 8.9000000000000004 3.1981926704799637 1.1648063864887508 8.8748720699468979 8.8612160222911047 1.1308827834429598 8.8567565126212084 5.0225637491795805 1 9.0 3.1515039359328689 1.1514373880977031 5.5385313680483996 0.97716041490356909 3.0548685237735409 6.7636899367155108 4.7825427764296808 1 5.0888680179476999 6.9816155191535261 1.1592095779077207 8.8640585411103032 2.9473019919612806 3.1974188387172466 7.5377320916344601 3.9515698506556589 2.8248536508810327 0.95953699828079109 7.6070346497673391 1 5.4662871784902549 4.8858681015709164 1.1266487722096044 2.9497594051857083 6.1701477440090065 1.1416235050706025 6.0296200957386343 1.1637824419975635 1.1597991323572296 4.8944449221011537 8.2118575416860029 3.3583875843077577 8.6538790607701515 5.774271830696958 2.7585380118719423 1.0798056702231438 6.2169456960562162 1 4.1946751888777394 3.7781992832958315 3.3722571696060801 4.5914080996487066 0.97103821931829015 3.1030393077875074 2.6565377296793544 8.0208708072717485 2.5552735522102212 3.217063765054375 8.6209792973917114 3.8069756392315948 6.2498987016249155 3.2868610735166395 1.129025409132089 1.1188254279567513 1.1535388954989005 1.1418574818939151 2.4321272383882855 1.1400449879239045 1.1413306907225709 6.1740037205107603 4.8712455669621715 2.8199715965510439 8.8034858076087321 1.1853823874158587 3.2123485201967505 8.8265265721404376 2.8997138962028735 1.1375760355501785 7.130967668167747 6.5274528024873408 2.774800063090415 7.2160694097923628 4.5580065443938125 2.8211332986962074 6.2518755709581812 4.255598570243829 3.0061547312956693 2.6994299197083587 4.5827761875016586 1.1295618153714375 7.1909301000931647 3.3155396868127713 1.1506858758148271 4.0300431904953218 7.5856117768763092 2.5356086846568857 0.97987176765483552 7.8869075570104465 1 2.0420858488880644 6.3113756812229322 1 2.4047593692662863 9.0 2.5359355661616503 1.9070820641431554 9.0 2.4392856664358034 4.6900942380865551 6.1528814117563346 1 7.6912346424393814 2.1981300290160828 2.9351768285187654 5.4495462497473959 5.4090280886816666 2.5011384827459739 4.4505257576587569 2.0798354314480014 2.9306498960533269 1.1045159499922201 7.2190863171512616 2.4868527604818884 4.9060678544807734 6.370308671061248 2.654335341529523 2.8791716591645957 7.5560364237803181 1 3.7400811917331609 5.4720362027838565 4.2236861060404056 3.6005848236159359 2.3752772076094395 2.8615511921361185 3.5680159121823345 8.3597094857577012 4.136212178494211 4.0286789402631999 </DataArray>
<DataArray Name="forces" NumberOfComponents="3" format="ascii" type="Float32">-0.53926651345275922 -0.15862456791768498 -1.2495996519882311 -0.025863772935080756 -0.13317992931735587 0.021010809576906257 0.0077292738312071674 -0.22097681074606465 -0.80695318761395363 0.34669890596871172 -0.18480004950505466 -0.43453880807245843 -0.44657956848426605 -0.04368051976667095 0.0037102386162927679 0.019688625178199443 -0.12284920477543283 -0.35597097027130808 0.80992636363687565 -0.20067252058723237 -0.043151420478013292 0.61163153813740234 -0.58867115995376573 -0.0099222561600973563 -0.55893860466644163 -0.05837667416092155 0.0020058946235309016 -0.03825888011667597 0.45504207982260853 0.025041477997775494 0.34789095720564034 -0.19643475725457962 -0.0045160224300571233 -0.41410248188120191 -0.38190176366224782 1.219786331437164 0.018273919412228889 0.012167781652625043 0.91327927527632902 0.74670467255642081 -0.4016276914309353 0.69230818315391085 0.051940360055554802 -0.43834933043856422 0.62738709702183515 0.002992760087079771 -0.1509054333714287 0.045399308572415795 -0.27859413716322379 0.31267886324610555 -0.0020615627840898931 0.013867430238060599 -0.38080518944971575 0.01534891616364005 0.0092763213761704044 -0.056101324415483184 0.78137732858151931 -0.015748721850214753 0.37722864002284751 0.10633469384890082 0.0011598835284537534 0.29728556193661793 -0.49356216426009436 0.043180773859554815 -0.52847930081221317 -0.045578628083993267 -0.015642369758822633 -0.45327358172691967 -0.044899606579731119 0.07999554092157779 -0.27061383711923404 -0.031038158175894781 -0.44177682209404517 -0.048910019823991735 0.0028356294737475335 0.12521647621076998 0.59581776514193152 0.65720941878103245 0.005377249659950907 0.10130781958847448 -0.075434768130266894 -0.021874125301230229 -0.37384854016522739 -0.016702081104114003 -0.021350978366464518 0.27927665266970464 0.0061515911786157729 -0.35327184209630569 0.28925867300267505 -0.080955723429921383 -0.016094041202251629 0.27078100895266383 -0.087241669026434016 0.25590260201566295 0.58632188236986216 -0.05352126773938945 0.020694815900477479 -0.42428368939856198 -0.99015633438616124 -0.56672620213914704 -0.26775981980973451 -0.00037309802625303673 -0.73132304231571177 -0.27418554651301114 0.012182637602053972 0.0060701318452921716 0.43378454640051617 0.10216944382755187 -0.17830364028379378 0.46420731914330704 0.32356750116786293 0.039722434101236104 -0.31998431709845127 0.019576941099532057 -0.014031748458624024 0.50435428527907666 0.074888322323365855 0.0016531252641769911 0.42800834555206158 0.014056156733926378 -0.031920144928851008 0.4704020823210755 -0.0052538109828111704 0.087070082572008434 -0.41774067941001186 0.027437886071474182 0.020249026044080604 -0.16007227747702246 0.031691400627611763 0.0044468233444769911 0.29655445201126335 -0.24552142690623086 0.0034913891838758496 -0.2096697965840281 -0.0021094863090739269 0.044420963526497811 -0.35306289969822047 0.03482773101475467 0.54212155527233263 0.33209847092223516 -0.070800441491832233 0.40904909537098139 0.28785194767094996 -0.066785726814837826 0.14101514789812464 -0.54762327522652499 -0.072392588459223861 -0.0044444586972472878 0.3063226497360903 0.016569366051018025 -0.03035290649309242 0.2960434401686976 -0.011786273564142781 0.001995665250994226 0.29809291295059648 -0.091514231737458956 -0.02262000639463476 0.35669723470540282 -0.08813071852501006 -0.026769513908814414 0.33020871693206438 -0.0359956366899057 0.023936385336191433 -0.32915433126556254 0.026745924613584625 0.083063600884872024 0.27765133030368505 -0.035473586817665714 -0.029194054576891289 0.30684558130352346 0.011037271919220895 -0.0019864899600629156 0.24568887831334454 -0.078679659997872367 </DataArray>
<DataArray Name="radii" format="ascii" type="Float32">1.2 1.2 1 1 1.2 1 1 1 1.2 1.2 1.4 1.2 1.2 1.2 1 1.2 1 1 1.2 1.2 1 1 1.2 1.2 1.2 1.4 1 1 1 1 1 1.4 1.2 1.2 1.2 1.2 1.2 1.2 1.2 1.2 1.2 1.2 1.2 1 1 1 1 1 1 1 1 1 1 1 1 1 1 1 </DataArray>
</PointData>
<CellData/>
</Piece>
</UnstructuredGrid>
</VTKFile>
