<?xml version="1.0" ?>
<VTKFile byte_order="LittleEndian" type="UnstructuredGrid" version="0.1">
<UnstructuredGrid>
<Piece NumberOfCells="0" NumberOfPoints="34">
<Points>
<DataArray NumberOfComponents="3" format="ascii" type="Float32">1 1 2.0 4.0 1 2.0 7.0 1 2.0 10.0 1 2.0 12.675014116269567 1 2.0 15.25763379086726 2.171840235292315 2 18.986141604044555 2.0144321013001103 2 22.681047949896943 2.1934582872324166 2 25.124277578882896 1 2.0 27.645786149292675 2.1653846658082645 2 31.491096882018308 2.0718488704132803 2 34.200581971067187 1 2.0 36.960327411543624 2.014514841021346 2 39.665456807880062 1 2.0 42.129827383396432 2.2028074460687566 2 45.738204715723619 2.0092049104603125 2 49.280855742325997 2.0251725647517689 2 52.887826284134725 2.1720480974927079 2 55.399081697334935 1 2.0 57.675014116269573 1 2.0 60.257633790867267 2.1718402352923141 2 63.986141604044555 2.0144321013001107 2 67.68104794989695 2.1934582872324118 2 70.124277578882896 1 2.0 72.645786149292675 2.1653846658082601 2 76.491096882018311 2.0718488704132834 2 79.200581971067194 1 2.0 82.0 2 2 85.0 1 2.0 88.0 2 2 91.0 1 2.0 93.898370276686961 2.0375224190907542 2 96.687724069342437 1 2.0 99.413905653970602 2.1922332800605524 2 </DataArray>
</Points>
<Cells>
<DataArray Name="connectivity" format="ascii" type="Int32">0</DataArray>
<DataArray Name="offsets" format="ascii" type="Int32">0</DataArray>
<DataArray Name="types" format="ascii" type="UInt8">1</DataArray>
</Cells>
<PointData>
<DataArray Name="Points" NumberOfComponents="3" format="ascii" type="Float32">1 1 2.0 4.0 1 2.0 7.0 1 2.0 10.0 1 2.0 12.675014116269567 1 2.0 15.25763379086726 2.171840235292315 2 18.986141604044555 2.0144321013001103 2 22.681047949896943 2.1934582872324166 2 25.124277578882896 1 2.0 27.645786149292675 2.1653846658082645 2 31.491096882018308 2.0718488704132803 2 34.200581971067187 1 2.0 36.960327411543624 2.014514841021346 2 39.665456807880062 1 2.0 42.129827383396432 2.2028074460687566 2 45.738204715723619 2.0092049104603125 2 49.280855742325997 2.0251725647517689 2 52.887826284134725 2.1720480974927079 2 55.399081697334935 1 2.0 57.675014116269573 1 2.0 60.257633790867267 2.1718402352923141 2 63.986141604044555 2.0144321013001107 2 67.68104794989695 2.1934582872324118 2 70.124277578882896 1 2.0 72.645786149292675 2.1653846658082601 2 76.491096882018311 2.0718488704132834 2 79.200581971067194 1 2.0 82.0 2 2 85.0 1 2.0 88.0 2 2 91.0 1 2.0 93.898370276686961 2.0375224190907542 2 96.687724069342437 1 2.0 99.413905653970602 2.1922332800605524 2 </DataArray>
<DataArray Name="forces" NumberOfComponents="3" format="ascii" type="Float32">0.0 0.0 0.0 0.0 0.0 0.0 0.0 0.0 0.0 0.0 0.0 0.0 -0.17921895013816586 -0.079270322685234831 0.0 -0.13613711000610873 0.088804080031912064 0.0 -0.028188430737079828 -0.02004164070601961 0.0 0.067073246350930427 0.13883068854597991 0.0 0.063595396135007504 -0.22296632112128076 0.0 0.047300186193566074 0.097500897042258172 0.0 0.074427348850875694 0.032825911613607123 0.0 0.091148313350974716 -0.035683292721222053 0.0 -0.0870500927373173 0.031924073007070258 0.0 -0.14467351679767504 -0.13890585614643702 0.0 -0.20997339796397985 0.12356542622585492 0.0 -0.085013668737856929 -0.018452522514886147 0.0 0.078920113107996903 -0.0098436912686980637 0.0 0.21153008173221352 0.11773328149981618 0.0 0.23626048139661868 -0.10602071080272014 0.0 -0.17921895013816144 -0.079270322685232722 0.0 -0.13613711000611847 0.088804080031910093 0.0 -0.028188430737081605 -0.020041640706019607 0.0 0.067073246350942084 0.13883068854597685 0.0 0.063595396135001175 -0.22296632112127826 0.0 0.047300186193571403 0.097500897042258228 0.0 0.074427348850867256 0.032825911613609551 0.0 0.091148313350979601 -0.035683292721224134 0.0 0.0 0.0 0.0 0.0 0.0 0.0 0.0 0.0 0.0 0.0 0.0 0.0 -0.039026206022202047 0.014516536430034562 0.0 0.00019404465766916651 -0.031498384091674048 0.0 0.03883216136453288 0.016981847661639484 0.0 </DataArray>
<DataArray Name="radii" format="ascii" type="Float32">1 1 1 1 1 2 2 2 1 2 2 1 2 1 2 2 2 2 1 1 2 2 2 1 2 2 1 2 1 2 1 2 1 2 </DataArray>
</PointData>
<CellData/>
</Piece>
</UnstructuredGrid>
</VTKFile>
