<?xml version="1.0" ?>
<VTKFile byte_order="LittleEndian" type="UnstructuredGrid" version="0.1">
<UnstructuredGrid>
<Piece NumberOfCells="0" NumberOfPoints="16">
<Points>
<DataArray NumberOfComponents="3" format="ascii" type="Float32">0.98951623596683269 1 0.85853946687418925 3.006956274344625 1 1.0 5.6156353563870747 1 0.91859671464471571 8.138129474637168 1.1638088526306456 1.2 1.1830976305565273 1.1750972980900924 3.2506047927321302 4.4922094810042701 1.2995430326853123 2.6218625806532136 6.8608922068508287 1.1638088526306456 3.2367945648021705 9.0 1 4.0 1.3359907508324935 1 5.5278745894981753 5.2970737887251618 1 5.2911395918761954 7.0816847355015895 1 6.0341909364942952 1.0 1 7.5085431736612529 4.0 1 7.0 9.0 1 7.0 6.0 1 8.0 3.1487091761659372 1.1638836688655734 4.4864224974435976 </DataArray>
</Points>
<Cells>
<DataArray Name="connectivity" format="ascii" type="Int32">0</DataArray>
<DataArray Name="offsets" format="ascii" type="Int32">0</DataArray>
<DataArray Name="types" format="ascii" type="UInt8">1</DataArray>
</Cells>
<PointData>
<DataArray Name="Points" NumberOfComponents="3" format="ascii" type="Float32">0.98951623596683269 1 0.85853946687418925 3.006956274344625 1 1.0 5.6156353563870747 1 0.91859671464471571 8.138129474637168 1.1638088526306456 1.2 1.1830976305565273 1.1750972980900924 3.2506047927321302 4.4922094810042701 1.2995430326853123 2.6218625806532136 6.8608922068508287 1.1638088526306456 3.2367945648021705 9.0 1 4.0 1.3359907508324935 1 5.5278745894981753 5.2970737887251618 1 5.2911395918761954 7.0816847355015895 1 6.0341909364942952 1.0 1 7.5085431736612529 4.0 1 7.0 9.0 1 7.0 6.0 1 8.0 3.1487091761659372 1.1638836688655734 4.4864224974435976 </DataArray>
<DataArray Name="forces" NumberOfComponents="3" format="ascii" type="Float32">-0.0027420036857435225 -0.0028354434660977233 -0.036998667844017737 0.0 0.0 0.0 0.014087372829487724 -0.0039659612610206353 -0.021290836742382 0.0 0.0 0.0 -0.0044207747489523339 0.0029524662094828533 0.026154763471103456 0.0018005888461746587 0.0056566289307444246 -0.0013127994095817851 0.0 0.0 0.0 0.0 0.0 0.0 0.0 0.0 0.0 0.016197758488934171 -0.0013986807854662422 0.0070085769670042656 0.00019455334178634449 0.0 8.1111901494554817e-05 0.0 0.0 0.0 0.0 0.0 0.0 0.0 0.0 0.0 0.0 0.0 0.0 -0.023475252021466907 1.9568009283372221e-05 0.022400206187097683 </DataArray>
<DataArray Name="radii" format="ascii" type="Float32">1 1 1 1.2 1.2 1 1.2 1 1 1 1 1 1 1 1 1.2 </DataArray>
</PointData>
<CellData/>
</Piece>
</UnstructuredGrid>
</VTKFile>
