<?xml version="1.0" ?>
<VTKFile byte_order="LittleEndian" type="UnstructuredGrid" version="0.1">
<UnstructuredGrid>
<Piece NumberOfCells="0" NumberOfPoints="49">
<Points>
<DataArray NumberOfComponents="3" format="ascii" type="Float32">0.94397141214654179 1 2 2.8930275383278907 1 2 5.325205274934131 1.5364114415659575 2.1999999999999997 9.1888175992168346 1 2 11.16425542591436 1 2 14.0 1 2 16.48704220473752 1 2 18.989153011413269 1.5189099563779418 2.1999999999999997 23.0 1 2 26.0 1 2 28.462853556367559 1 2 30.98883657999755 1.5326575211413538 2.1999999999999997 33.512312984868686 1 2 39.09541581546604 1.5570051609714506 2.1999999999999997 41.456717496835246 1 2 43.282154024017039 1 2 45.086380373133494 1 2 46.87197950237335 1 2 49.158649736676402 1.5602694010027942 2.1999999999999997 55.019371226810335 1.549415863755476 2.1999999999999997 57.916952155361216 1.4583859648380473 2.1999999999999997 63.775026661266978 1.5419271326823887 2.1999999999999997 66.761687679790384 1.5034629565848971 2.1999999999999997 69.800445032766959 1.5194569678323979 2.1999999999999997 72.238854926071667 1 2 74.180225414806714 1 2 78.113880611048316 1.5235423818225402 2.1999999999999997 80.545129960993734 1 2 82.471463412825173 1 2 83.364195569766991 3.3073703349302992 2.1999999999999997 88.824573869714953 1.4783105917317729 2.1999999999999997 91.820232727856975 1.5371379796939877 2.1999999999999997 97.123352623905319 1 2 99.240665660405924 2.1616484233127999 2.1999999999999997 7.7487450566886675 2.2985514696841025 2 21.581495669530685 3.3661156501815883 2 33.553786185581309 3.4897544075326228 2 36.024457615991928 1.5103999856867107 2 50.737152451596138 3.6303714927444326 2 52.131257309660391 1.4782143387484965 2 58.102536399793514 4.6434881006965432 2 60.830991720503818 1.5356601824544809 2 66.95417141254616 4.1236477788112067 2 72.275789506902257 3.5107428744664624 2 75.421955439668679 3.1525505744982065 2 85.846247677239063 1.4816000985891158 2 89.957539369185227 4.4562404582053299 2 94.799583576418584 1.5628776140535188 2 101.45283681064119 1 2 </DataArray>
</Points>
<Cells>
<DataArray Name="connectivity" format="ascii" type="Int32">0</DataArray>
<DataArray Name="offsets" format="ascii" type="Int32">0</DataArray>
<DataArray Name="types" format="ascii" type="UInt8">1</DataArray>
</Cells>
<PointData>
<DataArray Name="Points" NumberOfComponents="3" format="ascii" type="Float32">0.94397141214654179 1 2 2.8930275383278907 1 2 5.325205274934131 1.5364114415659575 2.1999999999999997 9.1888175992168346 1 2 11.16425542591436 1 2 14.0 1 2 16.48704220473752 1 2 18.989153011413269 1.5189099563779418 2.1999999999999997 23.0 1 2 26.0 1 2 28.462853556367559 1 2 30.98883657999755 1.5326575211413538 2.1999999999999997 33.512312984868686 1 2 39.09541581546604 1.5570051609714506 2.1999999999999997 41.456717496835246 1 2 43.282154024017039 1 2 45.086380373133494 1 2 46.87197950237335 1 2 49.158649736676402 1.5602694010027942 2.1999999999999997 55.019371226810335 1.549415863755476 2.1999999999999997 57.916952155361216 1.4583859648380473 2.1999999999999997 63.775026661266978 1.5419271326823887 2.1999999999999997 66.761687679790384 1.5034629565848971 2.1999999999999997 69.800445032766959 1.5194569678323979 2.1999999999999997 72.238854926071667 1 2 74.180225414806714 1 2 78.113880611048316 1.5235423818225402 2.1999999999999997 80.545129960993734 1 2 82.471463412825173 1 2 83.364195569766991 3.3073703349302992 2.1999999999999997 88.824573869714953 1.4783105917317729 2.1999999999999997 91.820232727856975 1.5371379796939877 2.1999999999999997 97.123352623905319 1 2 99.240665660405924 2.1616484233127999 2.1999999999999997 7.7487450566886675 2.2985514696841025 2 21.581495669530685 3.3661156501815883 2 33.553786185581309 3.4897544075326228 2 36.024457615991928 1.5103999856867107 2 50.737152451596138 3.6303714927444326 2 52.131257309660391 1.4782143387484965 2 58.102536399793514 4.6434881006965432 2 60.830991720503818 1.5356601824544809 2 66.95417141254616 4.1236477788112067 2 72.275789506902257 3.5107428744664624 2 75.421955439668679 3.1525505744982065 2 85.846247677239063 1.4816000985891158 2 89.957539369185227 4.4562404582053299 2 94.799583576418584 1.5628776140535188 2 101.45283681064119 1 2 </DataArray>
<DataArray Name="forces" NumberOfComponents="3" format="ascii" type="Float32">-0.11111973934322616 0.0 0.0 0.008225165606597834 -0.022732159274616012 0.0 0.017082297012196185 0.0014899486109634479 0.0 0.022601710006991897 -0.044084137509177161 0.0 0.026555996031062179 0.0 0.0 0.0 0.0 0.0 -0.040285322344199431 -0.0083496975680580655 0.0 -0.031769432640833234 -0.033220197525471749 0.0 0.0 0.0 0.0 0.0 0.0 0.0 -0.012818125614699177 -0.0027027198188360043 0.0 -0.0081506573530667637 -0.0059550839175769761 0.0 -0.038836112709205797 -0.12926555222359809 0.0 -0.02846251069056574 0.042332825794145899 0.0 -0.023308181779957859 -0.038814490944732945 0.0 -0.020668210336118875 0.0 0.0 -0.019103106475256482 0.0 0.0 -0.016594191663136498 -0.056640414225652851 0.0 -0.012542716557481542 0.048806690571628716 0.0 0.00094698175911550608 0.027281210882075135 0.0 0.014440872551047701 -0.15325552987250304 0.0 0.045237219200930184 0.012429045644046226 0.0 0.04361045479669378 -0.063855747276027483 0.0 0.049953156750351398 -0.032135326880580455 0.0 0.0011693802740651656 -0.11008559722769015 0.0 -0.0083429962104250299 -0.10653614807265184 0.0 -0.01262386308295034 -0.024032853570328225 0.0 0.011351264898839322 -0.023883305924100078 0.0 0.033718786984457898 -0.12433807965696371 0.0 -0.051931703111693088 0.19832686062668192 0.0 -0.038536411310494317 -0.11373964286259763 0.0 -0.0093284963075994376 0.002930868871541684 0.0 0.050832226346689824 -0.14454292375818162 0.0 0.076971125912957364 0.13862337509590986 0.0 0.022070800246756596 0.064419877496427552 0.0 0.054411821986333854 0.038659120364951789 0.0 -0.01934375027570661 0.15063188478673994 0.0 -0.03468460025525226 -0.050097755237640949 0.0 -0.0085902173081335575 0.052512137639430287 0.0 -0.0084746986077619685 -0.11393053838258907 0.0 0.009902046069173432 0.15956114587175579 0.0 0.028810276845990246 0.0 0.0 0.0057642185273908209 0.06850155366591118 0.0 0.059485016831551094 0.14222092410827061 0.0 -0.021495865544533116 0.15445230756708014 0.0 -0.070940811391462522 -0.10721566718233003 0.0 0.048513626301631751 0.12724159807419302 0.0 0.020954060957782739 0.053979477633586508 0.0 0.089731144563002255 -0.047030732763920176 0.0 </DataArray>
<DataArray Name="radii" format="ascii" type="Float32">1 1 1.5999999999999999 1 1 1 1 1.5999999999999999 1 1 1 1.5999999999999999 1 1.5999999999999999 1 1 1 1 1.5999999999999999 1.5999999999999999 1.5999999999999999 1.5999999999999999 1.5999999999999999 1.5999999999999999 1 1 1.5999999999999999 1 1 1.5999999999999999 1.5999999999999999 1.5999999999999999 1 1.5999999999999999 1 1.5999999999999999 1.5999999999999999 1.5999999999999999 1 1.5999999999999999 1.5999999999999999 1.5999999999999999 1 1.5999999999999999 1.5999999999999999 1.5999999999999999 1.5999999999999999 1.5999999999999999 1 </DataArray>
</PointData>
<CellData/>
</Piece>
</UnstructuredGrid>
</VTKFile>
