<?xml version="1.0" ?>
<VTKFile byte_order="LittleEndian" type="UnstructuredGrid" version="0.1">
<UnstructuredGrid>
<Piece NumberOfCells="0" NumberOfPoints="34">
<Points>
<DataArray NumberOfComponents="3" format="ascii" type="Float32">31.0 1.0 0.0 31.0 1.0 0.0 31.0 1.0 0.0 37.0 1.0 0.0 40.0 1.0 0.0 43.0 1.0 0.0 46.0 1.0 0.0 49.0 1.0 0.0 52.0 1.0 0.0 55.0 1.0 0.0 58.0 1.0 0.0 61.0 1.0 0.0 64.0 1.0 0.0 70.0 1.0 0.0 70.0 1.0 0.0 99.844582472000667 2.422291236000329 0.0 70.0 1.0 0.0 76.0 1.0 0.0 79.0 1.0 0.0 83.406121899340988 1.0116920465073176 0.0 84.497715132677541 1.0491017613480449 0.0 90.875869467091135 0.48654516647866453 0.0 94.939109453656272 1.3853142768156175 0.0 97.154445137331038 0.38197842476709643 0.0 85.282156437902358 1.2630770880829303 0.0 1.0 1.0 0.0 5.0 1.0 0.0 12.0 1.0 0.0 5.0 1.0 0.0 12.0 1.0 0.0 17.0 1.0 0.0 24.0 1.0 0.0 17.0 1.0 0.0 24.0 1.0 0.0 </DataArray>
</Points>
<Cells>
<DataArray Name="connectivity" format="ascii" type="Int32">0</DataArray>
<DataArray Name="offsets" format="ascii" type="Int32">0</DataArray>
<DataArray Name="types" format="ascii" type="UInt8">1</DataArray>
</Cells>
<PointData>
<DataArray Name="Points" NumberOfComponents="3" format="ascii" type="Float32">31.0 1.0 0.0 31.0 1.0 0.0 31.0 1.0 0.0 37.0 1.0 0.0 40.0 1.0 0.0 43.0 1.0 0.0 46.0 1.0 0.0 49.0 1.0 0.0 52.0 1.0 0.0 55.0 1.0 0.0 58.0 1.0 0.0 61.0 1.0 0.0 64.0 1.0 0.0 70.0 1.0 0.0 70.0 1.0 0.0 99.844582472000667 2.422291236000329 0.0 70.0 1.0 0.0 76.0 1.0 0.0 79.0 1.0 0.0 83.406121899340988 1.0116920465073176 0.0 84.497715132677541 1.0491017613480449 0.0 90.875869467091135 0.48654516647866453 0.0 94.939109453656272 1.3853142768156175 0.0 97.154445137331038 0.38197842476709643 0.0 85.282156437902358 1.2630770880829303 0.0 1.0 1.0 0.0 5.0 1.0 0.0 12.0 1.0 0.0 5.0 1.0 0.0 12.0 1.0 0.0 17.0 1.0 0.0 24.0 1.0 0.0 17.0 1.0 0.0 24.0 1.0 0.0 </DataArray>
<DataArray Name="forces" NumberOfComponents="3" format="ascii" type="Float32">0.0 0.0 0.0 0.0 0.0 0.0 0.0 0.0 0.0 0.0 0.0 0.0 0.0 0.0 0.0 0.0 0.0 0.0 0.0 0.0 0.0 0.0 0.0 0.0 0.0 0.0 0.0 0.0 0.0 0.0 0.0 0.0 0.0 0.0 0.0 0.0 0.0 0.0 0.0 0.0 0.0 0.0 0.0 0.0 0.0 0.0 0.0 0.0 0.0 0.0 0.0 0.0 0.0 0.0 0.0 0.0 0.0 0.88902902670932749 0.041441094325759965 0.0 -1.546375597853227 -0.23601835854639522 0.0 0.0 0.0 0.0 0.0 0.0 0.0 0.0 0.0 0.0 0.65734657114389949 0.19457726422063526 0.0 0.0 0.0 0.0 0.0 0.0 0.0 0.0 0.0 0.0 0.0 0.0 0.0 0.0 0.0 0.0 0.0 0.0 0.0 0.0 0.0 0.0 0.0 0.0 0.0 0.0 0.0 0.0 </DataArray>
<DataArray Name="radii" format="ascii" type="Float32">2 2 2 1 1 1 1 1 1 1 1 1 1 2 2 2 2 1 1 1 1 2 1 1 2 2 1 2 2 1 1 2 2 1 </DataArray>
</PointData>
<CellData/>
</Piece>
</UnstructuredGrid>
</VTKFile>
