<?xml version="1.0" ?>
<VTKFile byte_order="LittleEndian" type="UnstructuredGrid" version="0.1">
<UnstructuredGrid>
<Piece NumberOfCells="0" NumberOfPoints="34">
<Points>
<DataArray NumberOfComponents="3" format="ascii" type="Float32">1 1 2.0 4.0 1 2.0 7.0 1 2.0 10.0 1 2.0 12.98674911018888 1 2.0 15.625150531106341 2.0313996868427546 2 19.014760189000441 2.0292744022660685 2 22.39411872270302 2.0056227526016737 2 25.010619750811127 1 2.0 27.685185578106257 2.0320943090447514 2 31.330085313202169 2.0041835985346954 2 34.014910847221152 1 2.0 37.0 2 2 39.986603383956435 1 2.0 42.620032528457294 2.0315450825572605 2 45.956195070312013 2.0263673538915685 2 49.078288002521518 2.0293753248915412 2 52.400000000000006 2.0056292493946799 2 55.020461057092128 1 2.0 57.986749110188882 1 2.0 60.625150531106343 2.0313996868427542 2 64.014760189000441 2.0292744022660685 2 67.394118722703013 2.0056227526016723 2 70.010619750811131 1 2.0 72.685185578106271 2.032094309044751 2 76.330085313202176 2.0041835985346945 2 79.014910847221159 1 2.0 82.0 2 2 85.0 1 2.0 88.0 2 2 91.0 1 2.0 93.997965231688767 2.0007231331246156 2 96.760405762558875 1 2.0 99.241629005752358 2.1159501529918754 2 </DataArray>
</Points>
<Cells>
<DataArray Name="connectivity" format="ascii" type="Int32">0</DataArray>
<DataArray Name="offsets" format="ascii" type="Int32">0</DataArray>
<DataArray Name="types" format="ascii" type="UInt8">1</DataArray>
</Cells>
<PointData>
<DataArray Name="Points" NumberOfComponents="3" format="ascii" type="Float32">1 1 2.0 4.0 1 2.0 7.0 1 2.0 10.0 1 2.0 12.98674911018888 1 2.0 15.625150531106341 2.0313996868427546 2 19.014760189000441 2.0292744022660685 2 22.39411872270302 2.0056227526016737 2 25.010619750811127 1 2.0 27.685185578106257 2.0320943090447514 2 31.330085313202169 2.0041835985346954 2 34.014910847221152 1 2.0 37.0 2 2 39.986603383956435 1 2.0 42.620032528457294 2.0315450825572605 2 45.956195070312013 2.0263673538915685 2 49.078288002521518 2.0293753248915412 2 52.400000000000006 2.0056292493946799 2 55.020461057092128 1 2.0 57.986749110188882 1 2.0 60.625150531106343 2.0313996868427542 2 64.014760189000441 2.0292744022660685 2 67.394118722703013 2.0056227526016723 2 70.010619750811131 1 2.0 72.685185578106271 2.032094309044751 2 76.330085313202176 2.0041835985346945 2 79.014910847221159 1 2.0 82.0 2 2 85.0 1 2.0 88.0 2 2 91.0 1 2.0 93.997965231688767 2.0007231331246156 2 96.760405762558875 1 2.0 99.241629005752358 2.1159501529918754 2 </DataArray>
<DataArray Name="forces" NumberOfComponents="3" format="ascii" type="Float32">0.0 0.0 0.0 0.0 0.0 0.0 0.0 0.0 0.0 0.0 0.0 0.0 -0.084467486691600202 -0.031844868740901811 0.0 -0.62159142418346047 0.03146136537814908 0.0 -0.011750612414515804 0.0065089664746381731 0.0 0.60857323744036451 0.034275182546195146 0.0 0.047690346398250663 -0.063418659427040447 0.0 -0.42275241352586218 0.026853110004078872 0.0 0.40161720273816054 0.026398511484091294 0.0 0.082681150238662959 -0.030233607719210312 0.0 0.0 0.0 0.0 -0.085396415146587981 -0.032208658733092699 0.0 -0.64735536719897036 0.032216452579354071 0.0 -0.20806262049790036 -0.00056733308777207124 0.0 0.19294322265000596 0.0070090746829165234 0.0 0.63744765744499932 0.034410026858407099 0.0 0.11042352274845345 -0.04085956229981292 0.0 -0.084467486691597732 -0.031844868740900846 0.0 -0.62159142418346292 0.031461365378148115 0.0 -0.011750612414534012 0.0065089664746384611 0.0 0.60857323744039515 0.034275182546190025 0.0 0.047690346398247339 -0.06341865942703212 0.0 -0.4227524135258855 0.026853110004075562 0.0 0.40161720273818391 0.026398511484087638 0.0 0.082681150238653828 -0.030233607719206843 0.0 0.0 0.0 0.0 0.0 0.0 0.0 0.0 0.0 0.0 0.0 0.0 0.0 -0.012970582934364689 0.0046095951630712355 0.0 -0.34050422360368821 -0.16708558976492796 0.0 0.35347480653805291 0.16247599460185672 0.0 </DataArray>
<DataArray Name="radii" format="ascii" type="Float32">1 1 1 1 1 2 2 2 1 2 2 1 2 1 2 2 2 2 1 1 2 2 2 1 2 2 1 2 1 2 1 2 1 2 </DataArray>
</PointData>
<CellData/>
</Piece>
</UnstructuredGrid>
</VTKFile>
