<?xml version="1.0" ?>
<VTKFile byte_order="LittleEndian" type="UnstructuredGrid" version="0.1">
<UnstructuredGrid>
<Piece NumberOfCells="0" NumberOfPoints="34">
<Points>
<DataArray NumberOfComponents="3" format="ascii" type="Float32">1.6785237238633355 1.5362046941063903 2 4.7031360932236312 1.6737099998046623 2.1999999999999997 7.5783407456877043 1.6746765188215624 2.1999999999999997 10.204239284719325 1.5074080410282145 2 12.904067608633987 1.6917876622650159 2.1999999999999997 15.593059672801132 1.5070470190037644 2 18.369915713823094 1.6807527119709871 2.1999999999999997 21.145824910412859 1.5069698413277131 2 24.005460796615179 1.6695179098870536 2.1999999999999997 26.867041843478123 1.5211380804116144 2 29.602597409816383 1.524786099028296 2 32.567688583429849 1.6589038973706405 2.1999999999999997 35.521736674972836 1.5189028512391287 2 38.332441446541964 1.5226014166309985 2 41.355209955048558 1.6548910071073042 2.1999999999999997 44.348739057332935 1.5065727733308507 2 47.381967931752556 1.6535558226381517 2.1999999999999997 50.382175696836136 1.5185008268354356 2 53.219392013157105 1.5221859504475614 2 56.253724754934936 1.6545903599814173 2.1999999999999997 59.24887387179254 1.5074942079981408 2 62.277037714073003 1.6438575981947383 2.1999999999999997 65.491954628518599 1.6287214235192389 2.1999999999999997 68.701025286125414 1.6405567034048429 2.1999999999999997 71.681749365175691 1.5179585995776188 2 74.508191730258005 1.5333142614017854 2 77.346846763032943 1.5331854103326297 2 80.200806057227155 1.5217032515985394 2 83.274279273859847 1.6383940349302848 2.1999999999999997 86.571178823357826 1.6214849037701837 2.1999999999999997 89.919434277077457 1.6239208054751559 2.1999999999999997 93.134117820375877 1.5050746120194307 2 96.315385191812169 1.5049513305738076 2 99.85461461349189 1.5958710155572904 2.1999999999999997 </DataArray>
</Points>
<Cells>
<DataArray Name="connectivity" format="ascii" type="Int32">0</DataArray>
<DataArray Name="offsets" format="ascii" type="Int32">0</DataArray>
<DataArray Name="types" format="ascii" type="UInt8">1</DataArray>
</Cells>
<PointData>
<DataArray Name="Points" NumberOfComponents="3" format="ascii" type="Float32">1.6785237238633355 1.5362046941063903 2 4.7031360932236312 1.6737099998046623 2.1999999999999997 7.5783407456877043 1.6746765188215624 2.1999999999999997 10.204239284719325 1.5074080410282145 2 12.904067608633987 1.6917876622650159 2.1999999999999997 15.593059672801132 1.5070470190037644 2 18.369915713823094 1.6807527119709871 2.1999999999999997 21.145824910412859 1.5069698413277131 2 24.005460796615179 1.6695179098870536 2.1999999999999997 26.867041843478123 1.5211380804116144 2 29.602597409816383 1.524786099028296 2 32.567688583429849 1.6589038973706405 2.1999999999999997 35.521736674972836 1.5189028512391287 2 38.332441446541964 1.5226014166309985 2 41.355209955048558 1.6548910071073042 2.1999999999999997 44.348739057332935 1.5065727733308507 2 47.381967931752556 1.6535558226381517 2.1999999999999997 50.382175696836136 1.5185008268354356 2 53.219392013157105 1.5221859504475614 2 56.253724754934936 1.6545903599814173 2.1999999999999997 59.24887387179254 1.5074942079981408 2 62.277037714073003 1.6438575981947383 2.1999999999999997 65.491954628518599 1.6287214235192389 2.1999999999999997 68.701025286125414 1.6405567034048429 2.1999999999999997 71.681749365175691 1.5179585995776188 2 74.508191730258005 1.5333142614017854 2 77.346846763032943 1.5331854103326297 2 80.200806057227155 1.5217032515985394 2 83.274279273859847 1.6383940349302848 2.1999999999999997 86.571178823357826 1.6214849037701837 2.1999999999999997 89.919434277077457 1.6239208054751559 2.1999999999999997 93.134117820375877 1.5050746120194307 2 96.315385191812169 1.5049513305738076 2 99.85461461349189 1.5958710155572904 2.1999999999999997 </DataArray>
<DataArray Name="forces" NumberOfComponents="3" format="ascii" type="Float32">-1.0511528839786499 0.12706161593689563 0.0 0.038507330179860633 0.26786704885950613 0.0 0.069256493254390872 0.27102734194316352 0.0 0.090060319778241027 0.032903237297505508 0.0 0.09983060085078832 0.32697681353375807 0.0 0.10255760588114071 0.031722778985803557 0.0 0.10166346794352077 0.29089508468730901 0.0 0.098683268733523177 0.031470425879891573 0.0 0.094459914772997533 0.25415988682643958 0.0 0.088949889558192274 0.077797282570276405 0.0 0.082741781460217267 0.089725457600219993 0.0 0.076408938632977486 0.21945452691219644 0.0 0.070096159942434011 0.070488601446905969 0.0 0.064308092806915185 0.082582052711703838 0.0 0.059307166069833106 0.20633330619853416 0.0 0.055050076524703506 0.030172105596187812 0.0 0.051951964934199291 0.20196756256650111 0.0 0.049969539633790139 0.069174074862082435 0.0 0.049119382746399154 0.081223574623790706 0.0 0.049214108885014984 0.20535025980632854 0.0 0.050060965120139467 0.033184983310088526 0.0 0.051384038073847949 0.17025661731207575 0.0 0.052974250174611659 0.12076483566722464 0.0 0.054693314363151613 0.15946345670997467 0.0 0.056702550970416876 0.06740111745236102 0.0 0.059430524443389032 0.11761057118204113 0.0 0.063869764853997646 0.11718925806191169 0.0 0.071608024657952685 0.079645261308294663 0.0 0.084729434573903806 0.15239203224456538 0.0 0.10593673459537356 0.097103093981022473 0.0 0.13664883993866517 0.10506792775675527 0.0 0.1755625781919174 0.025273465478511198 0.0 0.21261750135346424 0.024870363735934257 0.0 0.2357989152506762 0.013351618480404961 0.0 </DataArray>
<DataArray Name="radii" format="ascii" type="Float32">1.9999999999999998 2.1999999999999997 2.1999999999999997 1.9999999999999998 2.1999999999999997 1.9999999999999998 2.1999999999999997 1.9999999999999998 2.1999999999999997 1.9999999999999998 1.9999999999999998 2.1999999999999997 1.9999999999999998 1.9999999999999998 2.1999999999999997 1.9999999999999998 2.1999999999999997 1.9999999999999998 1.9999999999999998 2.1999999999999997 1.9999999999999998 2.1999999999999997 2.1999999999999997 2.1999999999999997 1.9999999999999998 1.9999999999999998 1.9999999999999998 1.9999999999999998 2.1999999999999997 2.1999999999999997 2.1999999999999997 1.9999999999999998 1.9999999999999998 2.1999999999999997 </DataArray>
</PointData>
<CellData/>
</Piece>
</UnstructuredGrid>
</VTKFile>
