<?xml version="1.0" ?>
<VTKFile byte_order="LittleEndian" type="UnstructuredGrid" version="0.1">
<UnstructuredGrid>
<Piece NumberOfCells="0" NumberOfPoints="33">
<Points>
<DataArray NumberOfComponents="3" format="ascii" type="Float32">56.0 2.0 0.0 59.0 2.0 0.0 62.0 2.0 0.0 65.0 2.0 0.0 68.0 2.0 0.0 71.0 2.0 0.0 74.0 2.0 0.0 77.0 2.0 0.0 80.0 2.0 0.0 83.0 2.0 0.0 86.0 2.0 0.0 89.0 2.0 0.0 92.0 2.0 0.0 95.0 2.0 0.0 98.0 2.0 0.0 2.0 2.0 0.0 5.0 2.0 0.0 8.0 2.0 0.0 11.0 2.0 0.0 14.0 2.0 0.0 17.0 2.0 0.0 20.0 2.0 0.0 23.0 2.0 0.0 26.0 2.0 0.0 29.0 2.0 0.0 32.0 2.0 0.0 35.0 2.0 0.0 38.0 2.0 0.0 41.0 2.0 0.0 44.0 2.0 0.0 47.0 2.0 0.0 50.0 2.0 0.0 53.0 2.0 0.0 </DataArray>
</Points>
<Cells>
<DataArray Name="connectivity" format="ascii" type="Int32">0</DataArray>
<DataArray Name="offsets" format="ascii" type="Int32">0</DataArray>
<DataArray Name="types" format="ascii" type="UInt8">1</DataArray>
</Cells>
<PointData>
<DataArray Name="Points" NumberOfComponents="3" format="ascii" type="Float32">56.0 2.0 0.0 59.0 2.0 0.0 62.0 2.0 0.0 65.0 2.0 0.0 68.0 2.0 0.0 71.0 2.0 0.0 74.0 2.0 0.0 77.0 2.0 0.0 80.0 2.0 0.0 83.0 2.0 0.0 86.0 2.0 0.0 89.0 2.0 0.0 92.0 2.0 0.0 95.0 2.0 0.0 98.0 2.0 0.0 2.0 2.0 0.0 5.0 2.0 0.0 8.0 2.0 0.0 11.0 2.0 0.0 14.0 2.0 0.0 17.0 2.0 0.0 20.0 2.0 0.0 23.0 2.0 0.0 26.0 2.0 0.0 29.0 2.0 0.0 32.0 2.0 0.0 35.0 2.0 0.0 38.0 2.0 0.0 41.0 2.0 0.0 44.0 2.0 0.0 47.0 2.0 0.0 50.0 2.0 0.0 53.0 2.0 0.0 </DataArray>
<DataArray Name="radii" format="ascii" type="Float32">1 1 1 2 1 1 2 2 2 1 2 2 1 2 2 2 1 2 1 2 1 1 1 2 2 2 2 1 2 2 2 2 1 </DataArray>
</PointData>
<CellData/>
</Piece>
</UnstructuredGrid>
</VTKFile>
