<?xml version="1.0" ?>
<VTKFile byte_order="LittleEndian" type="UnstructuredGrid" version="0.1">
<UnstructuredGrid>
<Piece NumberOfCells="0" NumberOfPoints="34">
<Points>
<DataArray NumberOfComponents="3" format="ascii" type="Float32">0.98163054322813914 1 2.0 3.1789756730257799 2.2141528083263022 2.0 5.426446524927921 1 2.0 7.5998917773763015 1.9944707575774929 2.0 10.946339237075094 1.7935905501512557 2.0 14.028821780009224 1.8026235363174508 2.0 17.352708589150005 1.8033170633482769 2.0 20.526964884024469 1.7995928495920945 2.0 23.0 1 2.0 25.872933223217473 1.8024665030605662 2.0 29.130066974520876 1.7995928495920945 2.0 32.0 1 2.0 34.872933223217473 1.8024665030605662 2.0 38.130066974520879 1.7995928495920945 2.0 41.0 1 2.0 44.0 1.7995928495920945 2.0 47.0 1 2.0 50.0 1 2.0 53.0 1 2.0 56.0 1 2.0 59.0 1 2.0 62.0 1 2.0 65.0 1 2.0 67.75916974264328 1.8024024138491996 2.0 70.999404818425276 1.8027121791181906 2.0 74.247427654671839 1.7995928495920945 2.0 77.0 1 2.0 80.0 1 2.0 83.0 1 2.0 86.0 1 2.0 89.0 1.7995928495920945 2.0 92.0 1 2.0 95.0 1.7995928495920945 2.0 98.0 1 2.0 </DataArray>
</Points>
<Cells>
<DataArray Name="connectivity" format="ascii" type="Int32">0</DataArray>
<DataArray Name="offsets" format="ascii" type="Int32">0</DataArray>
<DataArray Name="types" format="ascii" type="UInt8">1</DataArray>
</Cells>
<PointData>
<DataArray Name="Points" NumberOfComponents="3" format="ascii" type="Float32">0.98163054322813914 1 2.0 3.1789756730257799 2.2141528083263022 2.0 5.426446524927921 1 2.0 7.5998917773763015 1.9944707575774929 2.0 10.946339237075094 1.7935905501512557 2.0 14.028821780009224 1.8026235363174508 2.0 17.352708589150005 1.8033170633482769 2.0 20.526964884024469 1.7995928495920945 2.0 23.0 1 2.0 25.872933223217473 1.8024665030605662 2.0 29.130066974520876 1.7995928495920945 2.0 32.0 1 2.0 34.872933223217473 1.8024665030605662 2.0 38.130066974520879 1.7995928495920945 2.0 41.0 1 2.0 44.0 1.7995928495920945 2.0 47.0 1 2.0 50.0 1 2.0 53.0 1 2.0 56.0 1 2.0 59.0 1 2.0 62.0 1 2.0 65.0 1 2.0 67.75916974264328 1.8024024138491996 2.0 70.999404818425276 1.8027121791181906 2.0 74.247427654671839 1.7995928495920945 2.0 77.0 1 2.0 80.0 1 2.0 83.0 1 2.0 86.0 1 2.0 89.0 1.7995928495920945 2.0 92.0 1 2.0 95.0 1.7995928495920945 2.0 98.0 1 2.0 </DataArray>
<DataArray Name="forces" NumberOfComponents="3" format="ascii" type="Float32">-0.016109193354142834 -0.0086187259692296434 0.0 -0.023578981903805481 0.030150729652572657 0.0 0.039688175257948315 -0.021532003683343015 0.0 -0.087663738235506536 0.0052762311393822307 0.0 0.087695534790226459 -0.0052637485943543144 0.0 -0.065505006951608699 -1.3667581233650372e-05 0.0 0.065505006951608699 1.3667581233650372e-05 0.0 0.0 0.0 0.0 0.0 0.0 0.0 0.0 0.0 0.0 0.0 0.0 0.0 0.0 0.0 0.0 0.0 0.0 0.0 0.0 0.0 0.0 0.0 0.0 0.0 0.0 0.0 0.0 0.0 0.0 0.0 0.0 0.0 0.0 0.0 0.0 0.0 0.0 0.0 0.0 0.0 0.0 0.0 0.0 0.0 0.0 0.0 0.0 0.0 0.0 0.0 0.0 0.0 0.0 0.0 0.0 0.0 0.0 0.0 0.0 0.0 0.0 0.0 0.0 0.0 0.0 0.0 0.0 0.0 0.0 0.0 0.0 0.0 0.0 0.0 0.0 0.0 0.0 0.0 0.0 0.0 0.0 </DataArray>
<DataArray Name="radii" format="ascii" type="Float32">1 1.7999999999999998 1 1.7999999999999998 1.7999999999999998 1.7999999999999998 1.7999999999999998 1.7999999999999998 1 1.7999999999999998 1.7999999999999998 1 1.7999999999999998 1.7999999999999998 1 1.7999999999999998 1 1 1 1 1 1 1 1.7999999999999998 1.7999999999999998 1.7999999999999998 1 1 1 1 1.7999999999999998 1 1.7999999999999998 1 </DataArray>
</PointData>
<CellData/>
</Piece>
</UnstructuredGrid>
</VTKFile>
