<?xml version="1.0" ?>
<VTKFile byte_order="LittleEndian" type="UnstructuredGrid" version="0.1">
<UnstructuredGrid>
<Piece NumberOfCells="0" NumberOfPoints="164">
<Points>
<DataArray NumberOfComponents="3" format="ascii" type="Float32">0.91721280272116912 1 2.0 3.8631606137145211 4.1444320136765391 2.0 6.901363097253971 1 2.0 11.61228505568171 4.2356800964155505 2.0 13.100808184273326 1.0 2.0 16.0 1.0 2.0 18.525407326071608 1 2.0 21.444044864090912 1.4694493722303714 2.0 24.078044478199971 4.0538806303614043 2.0 27.739250745142975 1 2.0 30.201074721272807 4.2958065296690089 2.0 34.024395743056829 1 2.0 35.233386845225318 1.9183328976107854 2.0 39.137566256489862 3.8255770136184504 2.0 43.501507067529026 1 2.0 44.898018879323324 1.4699459100219552 2.0 49.0 1.0 2.0 52.92037705747623 3.7643232852030915 2.0 55.113195183128774 1 2.0 56.498030174362249 1.430884545164631 2.0 61.352474025024065 1 2.0 63.755983067123047 2.4309560360477049 2.0 68.242079509155545 1 2.0 70.029907830880774 1 2.0 73.0 1.0 2.0 76.0 1.0 2.0 78.359856634542595 1 2.0 81.373336624064578 2.8380902789611668 2.0 84.951058752937172 1 2.0 86.390212318603801 1.9650090640876576 2.0 90.507478743320192 2.0932574123543448 2.0 94.278778815750726 5.5833939294878254 2.0 98.020741807227722 3.6056959032577547 2.0 103.31346376930044 2.5338057290249667 2.0 6.3902705004116473 2.550990761360298 2.0 8.6626652895379888 1 2.0 21.910036992745344 4.4191129916125655 2.0 26.021208313295418 4.3030160319516302 2.0 32.290916165669358 1 2.0 36.470212704035411 4.7932812492530834 2.0 44.111607458677128 3.6516753123705894 2.0 47.686960264051933 2.7411839499047561 2.0 51.20142790200741 1 2.0 60.342656488231405 2.4122039062844336 2.0 62.00970064736066 2.8352191680197314 2.0 83.645247903083941 4.9362469211287285 2.0 89.846009579681677 5.7316575353127668 2.0 90.877510945694539 4.6324932248106263 2.0 93.126701163976506 3.6916855187329611 2.0 95.892481457929918 2.7615305421250498 2.0 100.71551768882821 1 2.0 2.3567564258898992 1.2887179191470535 2.0 11.247863579207976 1.1989839326227525 2.0 22.939381751600134 1 2.0 26.259079067248535 1.5375865226689003 2.0 29.039740620869235 1.6720877463644399 2.0 33.145438505295544 3.60961413311969 2.0 38.752478092071897 2.1655651295199982 2.0 46.016975813643633 4.1650601980512123 2.0 49.973692890738377 3.4537496331007027 2.0 55.864213938261933 3.8999839980817916 2.0 66.412936805935232 3.8448405906621619 2.0 80.039605052497492 1.502032680720921 2.0 88.085811978681306 2.2368530884052942 2.0 89.951421236208006 3.5461974187310914 2.0 94.308617788144488 2.4561294183344531 2.0 97.604496180468203 2.4113674770926345 2.0 100.6396365982194 4.2801367679498732 2.0 38.541000564390096 5.9010508333756873 2.0 41.867691438525583 1.3151362981379773 2.0 59.598964957555268 1 2.0 80.058398599592948 3.8081117395814168 2.0 86.196715943842563 3.8891215405966633 2.0 93.552369837818645 1 2.0 97.187062903508831 1 2.0 3.5151057318356225 2.0777143358016215 2.0 9.3459818367047021 4.7274241904596206 2.0 19.075285872696927 3.4155647130589712 2.0 24.618984774853978 1 2.0 31.735886277991639 6.1202686591055206 2.0 37.258005124993261 1 2.0 40.429213668428822 4.9578341228757941 2.0 46.760775005763939 1 2.0 54.201494396675628 2.1760275027250602 2.0 58.672147410094986 2.8254397353360932 2.0 64.973316626650231 1 2.0 82.845682784029222 2.3943977825436198 2.0 84.206395206382069 2.6932838226502422 2.0 91.533958980980628 3.0484803719039371 2.0 91.826523912181088 6.134947158146745 2.0 96.712508010235993 6.3009980605916018 2.0 102.12702395951149 1.4228285371142819 2.0 35.364019600570032 4.1498126296755879 2.0 42.115294768153326 3.0632653740469209 2.0 58.330230844129666 4.6006464947631658 2.0 85.786014282722249 5.5887258299869398 2.0 87.516796779812552 4.5130145903600365 2.0 91.916691068555281 1 2.0 94.983120269763816 1 2.0 9.2582798812039648 3.0249655925663137 2.0 27.236268387255681 3.0036601285199751 2.0 30.911325726005551 1.3592551806657727 2.0 34.524263747294434 3.0749132956075944 2.0 37.262447848023029 2.8881278085297222 2.0 66.54129233844597 1.7779945538203092 2.0 88.625678738720651 3.4028327133643015 2.0 94.714094095253571 3.9297668943705215 2.0 99.643696020941675 2.59610019433357 2.0 99.075779442249754 4.8686720696869843 2.0 39.811962950932319 7.075833041826237 2.0 40.29277787200683 1.0865417720945991 2.0 81.243189320736548 4.9920689568671879 2.0 4.8517719954435226 2.7926007582372696 2.0 12.833013203249802 5.4821479329460754 2.0 20.959023657045798 3.0861866745463975 2.0 23.341677698894941 2.5617306138514331 2.0 31.823041143925863 4.5020044453184047 2.0 36.30992254554662 1.4826336344200688 2.0 40.191334260676946 2.7227975463190095 2.0 45.951066561494535 2.5323554758392985 2.0 51.471731228983664 2.9731780409697435 2.0 57.234954755110515 2.6181750056054671 2.0 63.028621452682948 1 2.0 81.69820453025477 1.0876933286176633 2.0 87.014801365186386 1 2.0 90.074022737349779 1 2.0 93.309481230014129 7.0055134752953423 2.0 97.220775562631616 4.6797004661334212 2.0 103.23946037495288 4.212811567577873 2.0 36.738904808761006 6.3384286968751189 2.0 43.419142505409404 5.2106576546658037 2.0 59.917637922248687 3.9837534079529546 2.0 82.542265937634269 4.0224821285084067 2.0 89.079368971440829 7.2697323698147898 2.0 92.345524433920659 4.7121598583521589 2.0 96.17320460391872 1.3616673362181531 2.0 10.805881834011629 2.7194063830557376 2.0 25.166082527653742 2.7376932206672753 2.0 30.031878724040514 2.6751623096400308 2.0 33.026387753139666 2.1383579101325734 2.0 38.538327342975364 1 2.0 64.782356491966596 4.4837866828241033 2.0 88.553357462412706 1 2.0 92.825414254366947 2.2928847225926559 2.0 98.410327280695739 1.2438785144249671 2.0 101.34322721608153 2.852358899798825 2.0 37.822278230693833 4.449988766467909 2.0 43.216804272769913 2.3173591497098069 2.0 78.417305206191827 3.896256942430663 2.0 4.7619676747521309 1 2.0 19.842598546843963 1.8683075342742272 2.0 29.996732990695531 6.060969286034946 2.0 41.807965354305274 4.3519092142847331 2.0 52.662357514849418 1.8672778894232658 2.0 83.381311313966194 1 2.0 85.433342025473536 2.6591597693363758 2.0 95.819167541005612 4.8506087600197594 2.0 84.260913002651293 6.3033724161236089 2.0 88.267400380417442 5.7666714431947685 2.0 28.675975749370032 3.7815274555141722 2.0 31.571381811403384 2.9368172574498743 2.0 68.013433744227711 2.723865593476225 2.0 99.427911000503528 1 2.0 38.390597946121304 8.0628763294329051 2.0 </DataArray>
</Points>
<Cells>
<DataArray Name="connectivity" format="ascii" type="Int32">0</DataArray>
<DataArray Name="offsets" format="ascii" type="Int32">0</DataArray>
<DataArray Name="types" format="ascii" type="UInt8">1</DataArray>
</Cells>
<PointData>
<DataArray Name="Points" NumberOfComponents="3" format="ascii" type="Float32">0.91721280272116912 1 2.0 3.8631606137145211 4.1444320136765391 2.0 6.901363097253971 1 2.0 11.61228505568171 4.2356800964155505 2.0 13.100808184273326 1.0 2.0 16.0 1.0 2.0 18.525407326071608 1 2.0 21.444044864090912 1.4694493722303714 2.0 24.078044478199971 4.0538806303614043 2.0 27.739250745142975 1 2.0 30.201074721272807 4.2958065296690089 2.0 34.024395743056829 1 2.0 35.233386845225318 1.9183328976107854 2.0 39.137566256489862 3.8255770136184504 2.0 43.501507067529026 1 2.0 44.898018879323324 1.4699459100219552 2.0 49.0 1.0 2.0 52.92037705747623 3.7643232852030915 2.0 55.113195183128774 1 2.0 56.498030174362249 1.430884545164631 2.0 61.352474025024065 1 2.0 63.755983067123047 2.4309560360477049 2.0 68.242079509155545 1 2.0 70.029907830880774 1 2.0 73.0 1.0 2.0 76.0 1.0 2.0 78.359856634542595 1 2.0 81.373336624064578 2.8380902789611668 2.0 84.951058752937172 1 2.0 86.390212318603801 1.9650090640876576 2.0 90.507478743320192 2.0932574123543448 2.0 94.278778815750726 5.5833939294878254 2.0 98.020741807227722 3.6056959032577547 2.0 103.31346376930044 2.5338057290249667 2.0 6.3902705004116473 2.550990761360298 2.0 8.6626652895379888 1 2.0 21.910036992745344 4.4191129916125655 2.0 26.021208313295418 4.3030160319516302 2.0 32.290916165669358 1 2.0 36.470212704035411 4.7932812492530834 2.0 44.111607458677128 3.6516753123705894 2.0 47.686960264051933 2.7411839499047561 2.0 51.20142790200741 1 2.0 60.342656488231405 2.4122039062844336 2.0 62.00970064736066 2.8352191680197314 2.0 83.645247903083941 4.9362469211287285 2.0 89.846009579681677 5.7316575353127668 2.0 90.877510945694539 4.6324932248106263 2.0 93.126701163976506 3.6916855187329611 2.0 95.892481457929918 2.7615305421250498 2.0 100.71551768882821 1 2.0 2.3567564258898992 1.2887179191470535 2.0 11.247863579207976 1.1989839326227525 2.0 22.939381751600134 1 2.0 26.259079067248535 1.5375865226689003 2.0 29.039740620869235 1.6720877463644399 2.0 33.145438505295544 3.60961413311969 2.0 38.752478092071897 2.1655651295199982 2.0 46.016975813643633 4.1650601980512123 2.0 49.973692890738377 3.4537496331007027 2.0 55.864213938261933 3.8999839980817916 2.0 66.412936805935232 3.8448405906621619 2.0 80.039605052497492 1.502032680720921 2.0 88.085811978681306 2.2368530884052942 2.0 89.951421236208006 3.5461974187310914 2.0 94.308617788144488 2.4561294183344531 2.0 97.604496180468203 2.4113674770926345 2.0 100.6396365982194 4.2801367679498732 2.0 38.541000564390096 5.9010508333756873 2.0 41.867691438525583 1.3151362981379773 2.0 59.598964957555268 1 2.0 80.058398599592948 3.8081117395814168 2.0 86.196715943842563 3.8891215405966633 2.0 93.552369837818645 1 2.0 97.187062903508831 1 2.0 3.5151057318356225 2.0777143358016215 2.0 9.3459818367047021 4.7274241904596206 2.0 19.075285872696927 3.4155647130589712 2.0 24.618984774853978 1 2.0 31.735886277991639 6.1202686591055206 2.0 37.258005124993261 1 2.0 40.429213668428822 4.9578341228757941 2.0 46.760775005763939 1 2.0 54.201494396675628 2.1760275027250602 2.0 58.672147410094986 2.8254397353360932 2.0 64.973316626650231 1 2.0 82.845682784029222 2.3943977825436198 2.0 84.206395206382069 2.6932838226502422 2.0 91.533958980980628 3.0484803719039371 2.0 91.826523912181088 6.134947158146745 2.0 96.712508010235993 6.3009980605916018 2.0 102.12702395951149 1.4228285371142819 2.0 35.364019600570032 4.1498126296755879 2.0 42.115294768153326 3.0632653740469209 2.0 58.330230844129666 4.6006464947631658 2.0 85.786014282722249 5.5887258299869398 2.0 87.516796779812552 4.5130145903600365 2.0 91.916691068555281 1 2.0 94.983120269763816 1 2.0 9.2582798812039648 3.0249655925663137 2.0 27.236268387255681 3.0036601285199751 2.0 30.911325726005551 1.3592551806657727 2.0 34.524263747294434 3.0749132956075944 2.0 37.262447848023029 2.8881278085297222 2.0 66.54129233844597 1.7779945538203092 2.0 88.625678738720651 3.4028327133643015 2.0 94.714094095253571 3.9297668943705215 2.0 99.643696020941675 2.59610019433357 2.0 99.075779442249754 4.8686720696869843 2.0 39.811962950932319 7.075833041826237 2.0 40.29277787200683 1.0865417720945991 2.0 81.243189320736548 4.9920689568671879 2.0 4.8517719954435226 2.7926007582372696 2.0 12.833013203249802 5.4821479329460754 2.0 20.959023657045798 3.0861866745463975 2.0 23.341677698894941 2.5617306138514331 2.0 31.823041143925863 4.5020044453184047 2.0 36.30992254554662 1.4826336344200688 2.0 40.191334260676946 2.7227975463190095 2.0 45.951066561494535 2.5323554758392985 2.0 51.471731228983664 2.9731780409697435 2.0 57.234954755110515 2.6181750056054671 2.0 63.028621452682948 1 2.0 81.69820453025477 1.0876933286176633 2.0 87.014801365186386 1 2.0 90.074022737349779 1 2.0 93.309481230014129 7.0055134752953423 2.0 97.220775562631616 4.6797004661334212 2.0 103.23946037495288 4.212811567577873 2.0 36.738904808761006 6.3384286968751189 2.0 43.419142505409404 5.2106576546658037 2.0 59.917637922248687 3.9837534079529546 2.0 82.542265937634269 4.0224821285084067 2.0 89.079368971440829 7.2697323698147898 2.0 92.345524433920659 4.7121598583521589 2.0 96.17320460391872 1.3616673362181531 2.0 10.805881834011629 2.7194063830557376 2.0 25.166082527653742 2.7376932206672753 2.0 30.031878724040514 2.6751623096400308 2.0 33.026387753139666 2.1383579101325734 2.0 38.538327342975364 1 2.0 64.782356491966596 4.4837866828241033 2.0 88.553357462412706 1 2.0 92.825414254366947 2.2928847225926559 2.0 98.410327280695739 1.2438785144249671 2.0 101.34322721608153 2.852358899798825 2.0 37.822278230693833 4.449988766467909 2.0 43.216804272769913 2.3173591497098069 2.0 78.417305206191827 3.896256942430663 2.0 4.7619676747521309 1 2.0 19.842598546843963 1.8683075342742272 2.0 29.996732990695531 6.060969286034946 2.0 41.807965354305274 4.3519092142847331 2.0 52.662357514849418 1.8672778894232658 2.0 83.381311313966194 1 2.0 85.433342025473536 2.6591597693363758 2.0 95.819167541005612 4.8506087600197594 2.0 84.260913002651293 6.3033724161236089 2.0 88.267400380417442 5.7666714431947685 2.0 28.675975749370032 3.7815274555141722 2.0 31.571381811403384 2.9368172574498743 2.0 68.013433744227711 2.723865593476225 2.0 99.427911000503528 1 2.0 38.390597946121304 8.0628763294329051 2.0 </DataArray>
<DataArray Name="forces" NumberOfComponents="3" format="ascii" type="Float32">-0.40600256132206974 -0.1085873010017064 0.0 -0.097129170963186018 0.12358169983462644 0.0 0.013035458897838331 -0.18790784876885028 0.0 -0.056723324788658942 -0.077130778708224448 0.0 0.0 0.0 0.0 0.0 0.0 0.0 -0.20028843796865142 -0.15185260813702431 0.0 -0.047528546290541762 -0.13933093206295338 0.0 0.0071459134845321126 0.22714462226704579 0.0 -0.11156630733693002 -0.25714384517363942 0.0 0.06001743654680422 0.17226791164891925 0.0 0.066133235289548092 -0.39832325592636103 0.0 -0.18275895866174879 -0.018034232744643809 0.0 0.052178619391386794 0.074745854612216805 0.0 -0.094444895872881393 -0.59682168424780258 0.0 0.076946084449547147 -0.15264275510183872 0.0 0.0 0.0 0.0 0.18484909572895275 0.087017341191295866 0.0 -0.13538499533803861 -0.40426226253288655 0.0 0.070860571677662465 -0.28169664904386826 0.0 -0.063911423607640669 -0.058729362566983849 0.0 0.11483224689595339 0.18216399433472266 0.0 -0.0058142270486870925 -0.10268470797573531 0.0 0.016778522063464196 -0.012566370614359173 0.0 0.0 0.0 0.0 0.0 0.0 0.0 -0.04637524933700115 -0.026386386062246282 0.0 -0.21157328637718015 -0.12715943239474295 0.0 0.17254739061947777 -0.16303743396953424 0.0 0.23156679006655401 0.11861736283240354 0.0 -0.010146689846030177 0.019487110866755135 0.0 -0.018351957888320579 -0.016734138868940443 0.0 0.35862645457349818 -0.014554251542081681 0.0 0.1354085902282274 -0.076962478755601901 0.0 0.19742094872930235 0.094157723595140255 0.0 0.045270867572014817 -0.012566370614359173 0.0 0.10987861731025603 0.14478020503483188 0.0 -0.0035498838626850729 0.012115187326044786 0.0 0.10258708090149754 -0.56438484184401583 0.0 0.030962644013532659 0.086695369582776322 0.0 0.14681027038044386 -0.012622003683997468 0.0 0.012421197858388524 -0.01099459951487609 0.0 -0.075875014953665568 -0.059401161952044243 0.0 0.11126670717509199 -0.10254157653448268 0.0 0.065817868005698693 -0.0053594765510710952 0.0 0.16405567816298494 -0.082546405001103551 0.0 0.099270168349735344 0.086640386555529386 0.0 0.08816232662182466 0.025142749780817257 0.0 0.3991209395173837 -0.022448944506537068 0.0 0.22149620765244282 0.2825501104192224 0.0 0.1967759825558606 -0.13054956869465661 0.0 0.054345327103366647 -0.14486235613409232 0.0 0.092361991219295045 -0.29630774035266993 0.0 0.06107285386601239 -0.28873763105738226 0.0 -0.016555926136521709 -0.14170382742192994 0.0 -0.021348945078273451 -0.15477216671170255 0.0 -0.031747237201493889 0.35410828897664937 0.0 -0.026219743882579888 0.3511381030653023 0.0 0.011916800762495726 0.17297086008795179 0.0 -0.26553793224006506 0.069049208323850503 0.0 0.0 0.0 0.0 0.07657261096573735 -0.04257149831280109 0.0 -0.0410216339242599 0.0087590627447169545 0.0 -0.29723147394806948 0.02765259964538707 0.0 0.0029875640193174902 0.0020346596547798513 0.0 0.11136618821046435 -0.058131364992026438 0.0 -0.25573186243447765 0.10501968037173515 0.0 0.01591734017835611 0.15475608108247768 0.0 0.054242921418197185 0.12275469226648014 0.0 -0.020424382179384859 -0.11756832400330426 0.0 -0.15623859055685263 -0.21420852981960481 0.0 -0.053830136584907484 -0.072341837605029172 0.0 -0.11936378661423097 0.11543588432196836 0.0 -0.11555901611935387 -0.45012042808747393 0.0 0.067019654437697307 -0.72262607966350423 0.0 -0.064583039190986902 0.16626688817727955 0.0 0.0021431505008567466 0.1302800755915873 0.0 -0.049682073574963986 0.086332570912708989 0.0 0.080852530764163572 -0.040004172849087291 0.0 0.089276335001730822 0.15765463379195779 0.0 0.11173851042228611 -0.39697385563290744 0.0 -0.2859525312279958 0.15974312513004163 0.0 0.030336775725711897 -0.067198758818165283 0.0 0.048551323263592516 0.26564511120704115 0.0 0.28227182426049824 -0.061951718613855407 0.0 -0.047273716693034304 -0.036245813170884558 0.0 -0.21805396414512518 0.082997366227613167 0.0 -0.18559719974983468 0.084255454123782686 0.0 0.12180635296327497 0.22233628546402473 0.0 -0.17073466008548593 0.24093552324985562 0.0 0.035294299233985055 0.17594312043635385 0.0 0.2845457646044916 -0.24094132026331466 0.0 -0.1906120601248259 0.048485743806371988 0.0 -0.23753272761500982 -0.23838575091371872 0.0 -0.13333484560310585 0.059857234295586086 0.0 0.17231414833733633 -0.084387646064571276 0.0 -0.0096722638677101125 -0.087513450378679913 0.0 -0.30907361670364797 -0.18497774134128109 0.0 -0.079429312802510199 -0.35320293094931277 0.0 -0.30604684701767343 -0.092896949565137305 0.0 -0.13373352065412156 -0.11709433759808066 0.0 -0.30754852287792389 -0.25426033507837242 0.0 -0.20529288322681638 -0.12906344336556214 0.0 -0.098353659195624749 -0.038713662684687823 0.0 -0.018531361999368196 -0.042908526580815468 0.0 -0.13095882772616488 0.30090806129577119 0.0 -0.24614294231647482 -0.0073771272852141186 0.0 -0.07421931370425075 0.16489561436938655 0.0 -0.048407287033758101 0.11215406979585864 0.0 0.14231761601746212 -0.056451955189236722 0.0 -0.21809365041972412 -0.26464719824926292 0.0 -0.088321720733429337 0.2237522001934675 0.0 0.10081919790338299 0.012496041007473249 0.0 0.06404892032902848 0.05276128182227429 0.0 -0.038826192417799402 0.073703238158502327 0.0 -0.036590355669550746 -0.017378836665065907 0.0 0.088847987644464277 0.1466036601825888 0.0 -0.15225456015316452 0.0056968536812285423 0.0 0.49041708702208564 0.054119168579038889 0.0 0.19605731373074123 0.065357219821058854 0.0 -0.054594177305677699 -0.094533929621689522 0.0 -0.13325350405095537 0.27441510992966217 0.0 0.03769714684027009 -0.23445761194985074 0.0 -0.081884237837350535 -0.1457596773666141 0.0 -0.027134214976865301 -0.65469728771426472 0.0 0.00096202507199510956 -0.60710291522004811 0.0 0.032473126133888669 0.1051199718637684 0.0 0.15977018736994553 0.22608500453430996 0.0 -0.0046675316795428022 0.1550367053943032 0.0 0.045782106193626285 0.24803463860786584 0.0 -0.05212190518878778 0.11007961102103551 0.0 0.15282364265679149 0.20494240702387373 0.0 -0.047106012997268965 -0.30430866872257312 0.0 -0.0026342991768489102 0.14631539460756865 0.0 0.093706899708448879 0.13549502732264568 0.0 -0.076483940681563722 -0.039338409550953947 0.0 0.20421610975715213 0.15763040506857839 0.0 -0.076141671754239693 0.0053214782472678305 0.0 -0.094638776462479923 0.21792862924204673 0.0 0.1338491176927053 0.13117968155109477 0.0 0.40214029577991894 -0.66647074760643632 0.0 -0.07657261096573735 0.01743875708408274 0.0 0.22449685184741863 -0.53370702944803439 0.0 -0.19215618640845869 -0.24741910160628833 0.0 0.009233325883401422 -0.090719048676519892 0.0 0.12033661162982674 -0.054208644199438973 0.0 0.061428876781816473 -0.044355278009524941 0.0 0.35924143547118315 0.010630514375338679 0.0 -0.18343454028015016 -0.0041326795781525625 0.0 0.15682297127033754 -0.1687731471539764 0.0 -0.0056164769712255674 -0.098570387127468961 0.0 -0.099067902761142038 -0.013981911302859591 0.0 0.1389216863219867 0.35883225289424658 0.0 -0.050839942848510206 -0.15373569292278011 0.0 -0.037485226316360559 -0.36120099240332532 0.0 -0.1008286451471101 0.1219206923163825 0.0 -0.15160797849840996 0.13194658938677661 0.0 -0.0040307876183071634 0.37643448673728602 0.0 -0.098072017039805462 0.20328959162022794 0.0 -0.061286763470170959 -0.0085856369770327418 0.0 0.037445051901065549 -0.10995887384637242 0.0 0.054840783677625397 0.093874453426921134 0.0 0.21806095262242819 -0.45327013688776052 0.0 -0.1011869039063313 0.058515401292107729 0.0 </DataArray>
<DataArray Name="radii" format="ascii" type="Float32">1 1 1 1 1 1 1 1 1 1 1 1 1 1 1 1 1 1 1 1 1 1 1 1 1 1 1 1 1 1 1 1 1 1 1 1 1 1 1 1 1 1 1 1 1 1 1 1 1 1 1 1 1 1 1 1 1 1 1 1 1 1 1 1 1 1 1 1 1 1 1 1 1 1 1 1 1 1 1 1 1 1 1 1 1 1 1 1 1 1 1 1 1 1 1 1 1 1 1 1 1 1 1 1 1 1 1 1 1 1 1 1 1 1 1 1 1 1 1 1 1 1 1 1 1 1 1 1 1 1 1 1 1 1 1 1 1 1 1 1 1 1 1 1 1 1 1 1 1 1 1 1 1 1 1 1 1 1 1 1 1 1 1 1 </DataArray>
</PointData>
<CellData/>
</Piece>
</UnstructuredGrid>
</VTKFile>
