<?xml version="1.0" ?>
<VTKFile byte_order="LittleEndian" type="UnstructuredGrid" version="0.1">
<UnstructuredGrid>
<Piece NumberOfCells="0" NumberOfPoints="51">
<Points>
<DataArray NumberOfComponents="3" format="ascii" type="Float32">0.99503532412050455 1 2.0 3.3671326109561854 1.994817848374564 2.0 7.0 1.0 2.0 10.473571307002855 2.6534392781780878 2.0 13.0 1.0 2.0 16.0 1.0 2.0 19.0 1.0 2.0 21.557364903898442 1.9510311633530912 2.0 24.797636647531402 1.9653946149236965 2.0 28.0 1.0 2.0 30.483406123397799 2.6028218073990268 2.0 33.938185654302501 1 2.0 36.14171077865673 1.9358502889334588 2.0 39.502360425835207 2.0711625257336106 2.0 43.333824352956817 1 2.0 45.432978321581849 1.9941619219418998 2.0 49.0 1.0 2.0 52.425712573180654 2.8519485317154278 2.0 54.951791281846091 1 2.0 56.972867544306283 2.289062024269247 2.0 61.208452675050644 1 2.0 64.666588812706209 1.9971285076530532 2.0 67.02328777298257 1 2.0 70.0 1.0 2.0 73.0 1.0 2.0 76.0 1.0 2.0 79.0 1.0 2.0 81.520779780273372 1.9393260157085872 2.0 84.942086058804577 1 2.0 87.241819786345928 1.9276402381832833 2.0 90.662832811187528 1.9410664650762135 2.0 93.948126327675851 3.7809742733189564 2.0 97.623935754435365 2.2278178875829555 2.0 100.68577193309459 2.6384934407217111 2.0 5.6231974987307591 2.2777508497566452 2.0 9.0483901643134885 1 2.0 21.761317727644887 3.7569804281976698 2.0 26.100011896701151 3.2698899709737552 2.0 31.958113003128652 1 2.0 37.178493394934456 3.8795283096941406 2.0 41.777559815847312 2.0647482242672521 2.0 47.500170258364534 2.6910136359956445 2.0 51.350987290928337 1 2.0 59.480597512829227 2.0220699557785808 2.0 62.406395550507852 2.0653267555993158 2.0 82.70607295829123 3.8332888335290485 2.0 87.878661329857167 3.9996501370838682 2.0 90.475086059057929 3.702872889066295 2.0 93.171003800959085 1.920489855815166 2.0 95.797523832891997 1.9495000751763913 2.0 99.223810475661963 1 2.0 </DataArray>
</Points>
<Cells>
<DataArray Name="connectivity" format="ascii" type="Int32">0</DataArray>
<DataArray Name="offsets" format="ascii" type="Int32">0</DataArray>
<DataArray Name="types" format="ascii" type="UInt8">1</DataArray>
</Cells>
<PointData>
<DataArray Name="Points" NumberOfComponents="3" format="ascii" type="Float32">0.99503532412050455 1 2.0 3.3671326109561854 1.994817848374564 2.0 7.0 1.0 2.0 10.473571307002855 2.6534392781780878 2.0 13.0 1.0 2.0 16.0 1.0 2.0 19.0 1.0 2.0 21.557364903898442 1.9510311633530912 2.0 24.797636647531402 1.9653946149236965 2.0 28.0 1.0 2.0 30.483406123397799 2.6028218073990268 2.0 33.938185654302501 1 2.0 36.14171077865673 1.9358502889334588 2.0 39.502360425835207 2.0711625257336106 2.0 43.333824352956817 1 2.0 45.432978321581849 1.9941619219418998 2.0 49.0 1.0 2.0 52.425712573180654 2.8519485317154278 2.0 54.951791281846091 1 2.0 56.972867544306283 2.289062024269247 2.0 61.208452675050644 1 2.0 64.666588812706209 1.9971285076530532 2.0 67.02328777298257 1 2.0 70.0 1.0 2.0 73.0 1.0 2.0 76.0 1.0 2.0 79.0 1.0 2.0 81.520779780273372 1.9393260157085872 2.0 84.942086058804577 1 2.0 87.241819786345928 1.9276402381832833 2.0 90.662832811187528 1.9410664650762135 2.0 93.948126327675851 3.7809742733189564 2.0 97.623935754435365 2.2278178875829555 2.0 100.68577193309459 2.6384934407217111 2.0 5.6231974987307591 2.2777508497566452 2.0 9.0483901643134885 1 2.0 21.761317727644887 3.7569804281976698 2.0 26.100011896701151 3.2698899709737552 2.0 31.958113003128652 1 2.0 37.178493394934456 3.8795283096941406 2.0 41.777559815847312 2.0647482242672521 2.0 47.500170258364534 2.6910136359956445 2.0 51.350987290928337 1 2.0 59.480597512829227 2.0220699557785808 2.0 62.406395550507852 2.0653267555993158 2.0 82.70607295829123 3.8332888335290485 2.0 87.878661329857167 3.9996501370838682 2.0 90.475086059057929 3.702872889066295 2.0 93.171003800959085 1.920489855815166 2.0 95.797523832891997 1.9495000751763913 2.0 99.223810475661963 1 2.0 </DataArray>
<DataArray Name="forces" NumberOfComponents="3" format="ascii" type="Float32">-0.10839459046022984 -0.057798569895864842 0.0 -0.35428474682240579 -0.11314277442801252 0.0 0.0 0.0 0.0 0.35723058420114151 0.36957651581402423 0.0 0.0 0.0 0.0 0.0 0.0 0.0 0.0 0.0 0.0 -0.46836378106132237 -1.0691447181029177 0.0 -0.29687258512043346 -0.75554510185781543 0.0 0.0 0.0 0.0 -0.37470246720680728 0.36237634141596753 0.0 -0.26330134583872589 -0.1231933969700835 0.0 -0.75211597000254726 -1.4005912627485373 0.0 -0.58112849333673344 -0.51886616121429885 0.0 0.35166183599378031 -0.62447361182198791 0.0 -0.20750649193612924 -0.12746372483170557 0.0 0.0 0.0 0.0 0.29335802397179478 0.46228046904343112 0.0 -0.23874177632762708 -0.16167873021518639 0.0 -0.89840406160323505 0.17195160899125081 0.0 0.46671468085572315 -0.48785310271507176 0.0 0.35049544186682735 -0.062693767833361391 0.0 0.11992980025722158 -0.063228247945048749 0.0 0.0 0.0 0.0 0.0 0.0 0.0 0.0 0.0 0.0 0.0 0.0 0.0 -0.7975788242114531 -1.3247051446038023 0.0 -0.19317897556218533 -0.090077043616534402 0.0 -0.47490405684198445 -1.5798426600851541 0.0 -0.64092746192887751 -1.2867056254005924 0.0 -0.11900794312335439 2.1833165566337951 0.0 0.71299166542534897 0.43579159275369139 0.0 0.86839788736962442 0.37196750741817725 0.0 0.4606538089743023 0.044675324298445944 0.0 -0.35723058420114151 -0.43240836888582007 0.0 0.10098743768702059 0.95998276764943657 0.0 0.66445546043495751 0.64244776632858291 0.0 0.37470246720680728 -0.42520819448776337 0.0 0.18698721582882682 1.6517945390235349 0.0 0.71043249790794982 0.32067111878654664 0.0 0.52570305545443974 0.16412251490756299 0.0 -0.29335802397179478 -0.52511232211522696 0.0 0.53990310656367091 0.12669696495489685 0.0 -0.33989719161258092 0.099814156331745452 0.0 0.7975788242114531 1.2241741796889289 0.0 0.24870429503123392 1.4606456146574556 0.0 -0.057282528626192888 0.98701011660954618 0.0 -0.63044805014555227 -1.735958142190885 0.0 0.040869303769257681 -1.1025732197614682 0.0 0.18682321973164517 -0.83169558524256693 0.0 </DataArray>
<DataArray Name="radii" format="ascii" type="Float32">1 2 1 2 1 1 1 2 2 1 2 1 2 2 1 2 1 2 1 2 1 2 1 1 1 1 1 2 1 2 2 2 2 2 1 1 1 1 1 2 2 1 1 2 1 2 2 1 2 2 1 </DataArray>
</PointData>
<CellData/>
</Piece>
</UnstructuredGrid>
</VTKFile>
