<?xml version="1.0" ?>
<VTKFile byte_order="LittleEndian" type="UnstructuredGrid" version="0.1">
<UnstructuredGrid>
<Piece NumberOfCells="0" NumberOfPoints="40">
<Points>
<DataArray NumberOfComponents="3" format="ascii" type="Float32">0.95543306893480662 1 0.97784466633092448 2.8359143050400806 1.2775348370448432 1.349000362148034 6.5542786185715123 1 0.97644114333099508 6.0276981960272966 2.6758400448115278 1.3486707836298106 3.0008569871677953 1.3389944806369292 3.5235287095269725 4.7795485811915563 1.2986478170810214 4.4272688469110957 5.2208545498077203 1 2.526040165336755 8.6761801073861378 2.8322735300141155 3.2077315303143958 3.0515751088222864 1 5.5708336932502647 4.7155292826646829 1 6.6643701223378624 6.4681906677908891 1.3184864087714026 5.721965438041182 1.3699120578559456 1.3243606379931632 8.6691260077058203 3.0075612661348203 1 7.2901106181332747 8.6431135138615929 1.3242739634213252 8.6999999999999993 3.9196377019867774 1.3161131594922777 8.6920459190019841 4.6969607638998019 1 0.96029874761749445 8.6393243954969776 1.3027567521938721 1.3498710407303434 0.96822257979724791 1 3.1914901669344253 2.4711141490505821 4.253560374041979 3.1982009086860286 7.9394455314949548 3.5652961927689657 5.34659819204568 6.400318696947032 1.297705592445608 8.2262647543397751 1.3196861304992009 1.3071255243685311 6.4550213789729041 8.6659598814279004 3.4038526618186102 7.3552695931321566 4.0674099542579025 2.7047965582578604 6.5074624874395033 3.8543851278037211 3.1353673324491607 1.3819017745218365 7.4359011550956433 3.9197728317336149 2.0339452741712165 1.365397306745445 2.4925025999253094 4.7455894127561198 4.1082408400653474 3.7600822823238116 4.6486787715291795 7.0920200666170032 1.2615751106320734 3.1739207230181554 6.0791825164653508 3.1933383943058882 3.7705865401946572 0.98597271296840538 3.3217731149062719 8.4371264335582516 8.6417809908455823 1.2909714988596852 6.7200315698554052 5.1789989508668217 3.1848171156286402 8.651776911253183 9.0 3.3398864505003751 1.0426412316647335 1.3147528101383794 2.7447786745302389 1.9755956640940948 8.6775221888776919 1.2786890206857389 4.7611193252858808 6.2610630468085873 3.1802374879100399 6.70911995913821 2.0683678691324525 3.2444440574237432 6.9236346887278559 7.3160419943223038 3.8472959612039617 8.6621883910258823 3.1607627888110792 3.6693832486232787 8.4203945688899999 </DataArray>
</Points>
<Cells>
<DataArray Name="connectivity" format="ascii" type="Int32">0</DataArray>
<DataArray Name="offsets" format="ascii" type="Int32">0</DataArray>
<DataArray Name="types" format="ascii" type="UInt8">1</DataArray>
</Cells>
<PointData>
<DataArray Name="Points" NumberOfComponents="3" format="ascii" type="Float32">0.95543306893480662 1 0.97784466633092448 2.8359143050400806 1.2775348370448432 1.349000362148034 6.5542786185715123 1 0.97644114333099508 6.0276981960272966 2.6758400448115278 1.3486707836298106 3.0008569871677953 1.3389944806369292 3.5235287095269725 4.7795485811915563 1.2986478170810214 4.4272688469110957 5.2208545498077203 1 2.526040165336755 8.6761801073861378 2.8322735300141155 3.2077315303143958 3.0515751088222864 1 5.5708336932502647 4.7155292826646829 1 6.6643701223378624 6.4681906677908891 1.3184864087714026 5.721965438041182 1.3699120578559456 1.3243606379931632 8.6691260077058203 3.0075612661348203 1 7.2901106181332747 8.6431135138615929 1.3242739634213252 8.6999999999999993 3.9196377019867774 1.3161131594922777 8.6920459190019841 4.6969607638998019 1 0.96029874761749445 8.6393243954969776 1.3027567521938721 1.3498710407303434 0.96822257979724791 1 3.1914901669344253 2.4711141490505821 4.253560374041979 3.1982009086860286 7.9394455314949548 3.5652961927689657 5.34659819204568 6.400318696947032 1.297705592445608 8.2262647543397751 1.3196861304992009 1.3071255243685311 6.4550213789729041 8.6659598814279004 3.4038526618186102 7.3552695931321566 4.0674099542579025 2.7047965582578604 6.5074624874395033 3.8543851278037211 3.1353673324491607 1.3819017745218365 7.4359011550956433 3.9197728317336149 2.0339452741712165 1.365397306745445 2.4925025999253094 4.7455894127561198 4.1082408400653474 3.7600822823238116 4.6486787715291795 7.0920200666170032 1.2615751106320734 3.1739207230181554 6.0791825164653508 3.1933383943058882 3.7705865401946572 0.98597271296840538 3.3217731149062719 8.4371264335582516 8.6417809908455823 1.2909714988596852 6.7200315698554052 5.1789989508668217 3.1848171156286402 8.651776911253183 9.0 3.3398864505003751 1.0426412316647335 1.3147528101383794 2.7447786745302389 1.9755956640940948 8.6775221888776919 1.2786890206857389 4.7611193252858808 6.2610630468085873 3.1802374879100399 6.70911995913821 2.0683678691324525 3.2444440574237432 6.9236346887278559 7.3160419943223038 3.8472959612039617 8.6621883910258823 3.1607627888110792 3.6693832486232787 8.4203945688899999 </DataArray>
<DataArray Name="forces" NumberOfComponents="3" format="ascii" type="Float32">-0.55994412640207325 -0.39740624892842064 -0.27836219950459562 0.080106057916424556 -0.91975604503928765 -0.64076540567865259 0.030060409267321182 -0.61866181433152423 -0.295996226378268 0.18224766736302286 0.61052195208311377 -0.64490626866958833 0.059171739556464445 -0.14756990572868489 -0.13680558343718113 0.075259297858624008 -0.6544900983038322 0.049972408400444257 -0.26196543640698977 -0.31873912477825472 -0.08398190993575877 0.95713576546584622 0.70120883008640833 -0.1734586887975807 0.058997102024521464 -0.34885919773850654 -0.10557764522936501 0.05574501291085146 -0.65923380772395912 0.058644672065929687 0.063373141610976014 -0.40523571556726695 0.038871062481145829 -0.37802841874940096 -0.33143121363616634 0.86850723330889068 -0.018113694758910004 -0.45807406607429657 -0.1096848563984464 0.54168322292686744 -0.3325202030785423 1.2564116779389101 -0.070598843284495894 -0.43505349665679111 1.1564756754071226 0.059255479065199755 -0.345405867022959 -0.4988111712217993 0.49407629730290964 -0.60286495770704496 -0.62982609829320479 -0.39925521837509559 -0.42159366072720628 -0.063881285606000315 -0.18713906577187661 0.73905425373086608 0.00082932244800221211 0.034641886720275683 0.77449394736884181 -0.10328573318365983 -0.030033516098785889 -0.66632831865558351 0.1623565665488991 -1.0090728354126564 -0.54797519392208416 -0.12179597310753959 0.82872765301481355 0.68587576857226185 -0.054087013104127224 -0.03860810809196373 0.66068227819716918 0.01581344918302266 0.12452432252262674 0.7802038303682588 -0.2273882184073604 0.048632058949036307 0.53537924503795187 -0.15083636161106956 -0.43475227893160662 0.67292526779893025 -0.086982440306496392 -0.17388111381489407 0.68710846378438306 0.045931229129280104 -0.17775073722440013 -1.1202759114564278 0.031583034228474749 -0.029028894321521836 0.90989287824335197 -0.02067587564576201 -0.17624047236296492 0.4340198996876013 0.083028605480333903 0.52494124814247889 -0.75093625687245269 -0.11307724290998633 -0.14941773315320611 0.83513075396618308 0.65053115946106155 0.15625017614320774 0.39723198908206087 -0.23853126496101384 -1.0710556485361538 0.66794989656496673 -0.152003279085617 0.97399783405318074 -0.90525474699021224 -0.20036621604622828 0.019326710151794955 0.33152702064972495 0.0085740803466352045 -0.11613072840853023 0.40060321357103851 -0.046521634432182074 -0.030909068584610538 0.62631202192616331 0.78134220717149683 -0.28183838880523965 0.13542717326841638 0.1119943502785704 </DataArray>
<DataArray Name="radii" format="ascii" type="Float32">1 1.4 1 1.4 1.4 1.4 1 1.4 1 1 1.4 1.4 1 1.4 1.4 1 1.4 1 1.4 1.4 1.4 1.4 1.4 1.4 1.4 1 1.4 1.4 1.4 1.4 1 1.4 1.4 1 1.4 1.4 1 1 1.4 1 </DataArray>
</PointData>
<CellData/>
</Piece>
</UnstructuredGrid>
</VTKFile>
