<?xml version="1.0" ?>
<VTKFile byte_order="LittleEndian" type="UnstructuredGrid" version="0.1">
<UnstructuredGrid>
<Piece NumberOfCells="0" NumberOfPoints="71">
<Points>
<DataArray NumberOfComponents="3" format="ascii" type="Float32">1.0000510776460632 3.0631950111266097 2.0 2.9088610121823661 1 2.0 7.9891716455794901 1.0 2.0 9.2328703223364439 2.5696866095052671 2.0 12.627780168589569 1.0215437954155588 2.0 16.230096900573653 1.0 2.0 19.0 1.0 2.0 22.0 1.0 2.0 25.482926785227992 1.267275016118403 2.0 28.0 1.0 2.0 30.720045093369041 1.0 2.0 34.893478822784118 3.2941242474052239 2.0 36.798369989652713 1.0 2.0 38.565380800795076 4.4906879694540702 2.0 42.995439140512254 1.177761476840133 2.0 46.525895310402731 2.376336081820039 2.0 48.303858119131895 1.4599351236965565 2.0 54.507678735464005 2.7688350364468306 2.0 55.324253991253656 1 2.0 57.167768205061058 1 2.0 60.81744504845102 1 2.0 63.98295882351276 1.0 2.0 66.951042194753086 2.7501504441537103 2.0 69.934060938385286 2.4389394341222741 2.0 73.324365876062046 1.0 2.0 75.282632858353196 2.1185227320090938 2.0 79.085587932199431 1.0 2.0 82.0 1.0 2.0 84.994574689423331 1.0 2.0 88.721142125268543 1.9965204668654104 2.0 91.0 1.0 2.0 93.065532059262338 1.4649579728390569 2.0 96.930600470033099 1.0 2.0 99.56751553704359 1.0 2.0 0.97514793731096705 1.0651496419308559 2.0 7.878821054378129 5.84236193181889 2.0 11.232979772767361 2.458674174329929 2.0 13.83701150163308 3.0822746137199628 2.0 23.482848898120814 3.3617950789846476 2.0 33.114734080673188 1.4660299487533182 2.0 39.281641871928315 1.0 2.0 43.464574156199703 3.1219740488644976 2.0 44.995674710239363 1.0880526356514348 2.0 47.686727029991808 4.4145943166203585 2.0 51.359935382478263 1 2.0 63.17515388028918 2.8451818065716115 2.0 65.982990440556136 1.0 2.0 71.323141492754303 1.0 2.0 77.259618583927363 1.8159877077507898 2.0 86.721183385884814 2.0093673318812408 2.0 95.156061883920643 3.6861655595613332 2.0 97.430218346801112 2.9494243289845321 2.0 6.1172348116189053 4.6228845579272315 2.0 15.839800034668823 3.1231307155643973 2.0 25.347055895622965 4.094510973938398 2.0 32.882601575057009 3.4554326761790533 2.0 39.869663482257145 2.9117271269644092 2.0 40.962208092471421 5.2150901515303589 2.0 49.967438285301064 4.5791001150698616 2.0 52.520152411072132 2.6272069668006295 2.0 61.6392680365893 4.3942141331527917 2.0 95.052963495537867 1.6888246464992664 2.0 100.48498909440396 6.4679482418304106 2.0 6.0907689552906241 2.6236134389096799 2.0 42.909788309081684 5.6756985403048867 2.0 51.967184011243333 4.5486229040949757 2.0 58.72520639969617 5.6422436053127951 2.0 99.625092746729976 4.1063966417240421 2.0 4.8670829308198931 1.0 2.0 58.938278503269181 2.9779675485507142 2.0 102.22099139557118 2.6418226214007308 2.0 </DataArray>
</Points>
<Cells>
<DataArray Name="connectivity" format="ascii" type="Int32">0</DataArray>
<DataArray Name="offsets" format="ascii" type="Int32">0</DataArray>
<DataArray Name="types" format="ascii" type="UInt8">1</DataArray>
</Cells>
<PointData>
<DataArray Name="Points" NumberOfComponents="3" format="ascii" type="Float32">1.0000510776460632 3.0631950111266097 2.0 2.9088610121823661 1 2.0 7.9891716455794901 1.0 2.0 9.2328703223364439 2.5696866095052671 2.0 12.627780168589569 1.0215437954155588 2.0 16.230096900573653 1.0 2.0 19.0 1.0 2.0 22.0 1.0 2.0 25.482926785227992 1.267275016118403 2.0 28.0 1.0 2.0 30.720045093369041 1.0 2.0 34.893478822784118 3.2941242474052239 2.0 36.798369989652713 1.0 2.0 38.565380800795076 4.4906879694540702 2.0 42.995439140512254 1.177761476840133 2.0 46.525895310402731 2.376336081820039 2.0 48.303858119131895 1.4599351236965565 2.0 54.507678735464005 2.7688350364468306 2.0 55.324253991253656 1 2.0 57.167768205061058 1 2.0 60.81744504845102 1 2.0 63.98295882351276 1.0 2.0 66.951042194753086 2.7501504441537103 2.0 69.934060938385286 2.4389394341222741 2.0 73.324365876062046 1.0 2.0 75.282632858353196 2.1185227320090938 2.0 79.085587932199431 1.0 2.0 82.0 1.0 2.0 84.994574689423331 1.0 2.0 88.721142125268543 1.9965204668654104 2.0 91.0 1.0 2.0 93.065532059262338 1.4649579728390569 2.0 96.930600470033099 1.0 2.0 99.56751553704359 1.0 2.0 0.97514793731096705 1.0651496419308559 2.0 7.878821054378129 5.84236193181889 2.0 11.232979772767361 2.458674174329929 2.0 13.83701150163308 3.0822746137199628 2.0 23.482848898120814 3.3617950789846476 2.0 33.114734080673188 1.4660299487533182 2.0 39.281641871928315 1.0 2.0 43.464574156199703 3.1219740488644976 2.0 44.995674710239363 1.0880526356514348 2.0 47.686727029991808 4.4145943166203585 2.0 51.359935382478263 1 2.0 63.17515388028918 2.8451818065716115 2.0 65.982990440556136 1.0 2.0 71.323141492754303 1.0 2.0 77.259618583927363 1.8159877077507898 2.0 86.721183385884814 2.0093673318812408 2.0 95.156061883920643 3.6861655595613332 2.0 97.430218346801112 2.9494243289845321 2.0 6.1172348116189053 4.6228845579272315 2.0 15.839800034668823 3.1231307155643973 2.0 25.347055895622965 4.094510973938398 2.0 32.882601575057009 3.4554326761790533 2.0 39.869663482257145 2.9117271269644092 2.0 40.962208092471421 5.2150901515303589 2.0 49.967438285301064 4.5791001150698616 2.0 52.520152411072132 2.6272069668006295 2.0 61.6392680365893 4.3942141331527917 2.0 95.052963495537867 1.6888246464992664 2.0 100.48498909440396 6.4679482418304106 2.0 6.0907689552906241 2.6236134389096799 2.0 42.909788309081684 5.6756985403048867 2.0 51.967184011243333 4.5486229040949757 2.0 58.72520639969617 5.6422436053127951 2.0 99.625092746729976 4.1063966417240421 2.0 4.8670829308198931 1.0 2.0 58.938278503269181 2.9779675485507142 2.0 102.22099139557118 2.6418226214007308 2.0 </DataArray>
<DataArray Name="forces" NumberOfComponents="3" format="ascii" type="Float32">2.368847071958284e-05 0.0020695956442992806 0.0 0.027579017845128284 -0.0025022977154589366 0.0 0.0 0.0 0.0 0.0 0.0 0.0 0.0 0.0 0.0 0.0 0.0 0.0 0.0 0.0 0.0 0.0 0.0 0.0 0.0 0.0 0.0 0.0 0.0 0.0 0.0 0.0 0.0 0.0 0.0 0.0 0.0 0.0 0.0 0.0 0.0 0.0 0.0 0.0 0.0 0.0 0.0 0.0 0.0 0.0 0.0 -0.0147177563556495 0.04260142004364912 0.0 -0.14924510935056987 -0.042225423083812282 0.0 -0.097699016742239186 -0.30040022533634286 0.0 0.22420169457841005 -0.23644289379118416 0.0 0.0 0.0 0.0 0.0 0.0 0.0 0.0 0.0 0.0 0.0 0.0 0.0 0.0 0.0 0.0 0.0 0.0 0.0 0.0 0.0 0.0 0.0 0.0 0.0 0.0 0.0 0.0 0.0 0.0 0.0 0.0 0.0 0.0 0.0 0.0 0.0 0.0 0.0 0.0 -0.097039766946493064 0.0011091904088954877 0.0 0.0 0.0 0.0 0.0 0.0 0.0 0.0 0.0 0.0 0.0 0.0 0.0 0.0 0.0 0.0 0.0 0.0 0.0 0.0 0.0 0.0 0.0 0.0 0.0 0.0 0.0 0.0 -0.00048146943960453132 -0.00067456586058168904 0.0 0.0 0.0 0.0 0.0 0.0 0.0 0.0 0.0 0.0 0.0 0.0 0.0 0.0 0.0 0.0 0.0 0.0 0.0 0.0 0.0 0.0 1.5025312936257424e-05 0.001135035036654362 0.0 0.0 0.0 0.0 0.0 0.0 0.0 0.0 0.0 0.0 0.0 0.0 0.0 0.0 0.0 0.0 0.0 0.0 0.0 -0.0051563754982006929 2.207483243562517e-08 0.0 0.0 0.0 0.0 0.0 0.0 0.0 0.0 0.0 0.0 -1.5025312936257424e-05 -0.001135035036654362 0.0 0.0 0.0 0.0 -8.6124615224283902e-05 0.00029854682591241724 0.0 -0.028153626927974237 0.3904696691004082 0.0 -0.034730861535816372 0.019594723981812352 0.0 0.046666393302690068 0.0 0.0 0.071337784351052258 0.14637345002711882 0.0 0.034730861535816372 -0.019594723981812352 0.0 </DataArray>
<DataArray Name="radii" format="ascii" type="Float32">1 1 1 1 1 1 1 1 1 1 1 1 1 1 1 1 1 1 1 1 1 1 1 1 1 1 1 1 1 1 1 1 1 1 1 1 1 1 1 1 1 1 1 1 1 1 1 1 1 1 1 1 1 1 1 1 1 1 1 1 1 1 1 1 1 1 1 1 1 2 2 </DataArray>
</PointData>
<CellData/>
</Piece>
</UnstructuredGrid>
</VTKFile>
