<?xml version="1.0" ?>
<VTKFile byte_order="LittleEndian" type="UnstructuredGrid" version="0.1">
<UnstructuredGrid>
<Piece NumberOfCells="0" NumberOfPoints="66">
<Points>
<DataArray NumberOfComponents="3" format="ascii" type="Float32">0.90287833713469645 1 0.93652596345772832 3.2655455764211991 1.9750997061497613 0.95583010048774475 6.183832929050884 1 0.96052489521210516 6.0132104614748796 2.3419558658322313 2.1390656320924162 2.98597500939848 1.055674119220795 4.1112151552803367 4.855189812261905 1.1731290523655773 4.0970056070411545 4.7872620940894102 1 2.4095664150130567 9.0 1.1195990389224202 3.1719366649710121 2.8288657659503564 1 5.5518966540456285 4.7913639255520106 1 7.1102335326080324 6.2360019304511747 1 5.7653263414952045 0.94076347497693102 1.0540786759597875 8.7086597502011571 3.3747293859370657 1 7.0125729604592371 7.6264385053285677 1.1391963402543006 7.5541383346490498 3.8468833556725754 1 8.9910988836503929 4.4824985642700605 1 0.92632452336474491 9.0 1.1126525633641933 1.2017635115559047 0.96237617974516598 1 2.7920067222536402 1.9486827226076893 3.8703032110513598 3.6972395747625235 7.8590822540966254 3.6115187285177504 4.4679844171575729 6.285721954172927 2.2959518825426879 8.7505869350724623 1.1457217348520385 1 6.3022213234470987 8.4652996804161447 2.7161174173470481 8.5214959591398571 3.7631102460786909 2.4941611103894923 6.2623646986934718 4.7154520762181971 2.9244245616838445 1.2822420613129006 7.3412883206483279 4.0448138217153389 1.4913780763893212 1.9606125317478691 2.3834729546700868 5.0726673151837165 3.8145256588140817 3.5908341209587062 4.9998244718902916 6.5804641119314233 2.3590842414683095 3.8694946341990719 6.4764278325588824 4.1323511032155693 3.3821547352881871 0.99371843941232141 2.9324702767000002 9.0 8.5920098625735477 2.2888469621219811 6.6941157578275945 4.6414559782798728 2.307230869137062 8.4369646341222193 9.0 3.0619234837605345 0.99933179240319336 2.0134385957342027 1.441150048714501 1.3649839258762211 8.823450089127034 1.9987960473315185 4.7425143471913715 6.3272384863486293 3.9742105151171563 5.9741416799683069 1.2959111056228974 4.1953767824538231 7.2960773116124056 6.9608827296405114 3.9159039022149891 8.4905974422350763 2.8019664756409406 3.708703321590141 9.0 3.1211949044713125 1 2.5297027721002685 7.3833271047722659 2.2714771986551421 0.93565229104432346 3.923169283809695 2.4157083818420122 3.2173787373317855 5.537236276811524 2.6436487953028971 5.0146818758354268 7.5196391420574837 1 2.1882763299166403 5.6071117814576121 2.5633182518396671 6.8200278566842316 2.2458503047366318 1 7.923722927080691 7.2634661401289442 1 9.0 2.8992200322967965 2.5391516125316458 7.8647369763831598 7.8718225855408557 2.6755081812647394 2.7682261449785881 1.310537133846077 3.2543651118344066 1.6294819992635703 9.0 3.602216050274377 5.851122024554102 6.1496782952724445 1 7.5580652879915808 1.4170843003992291 2.5495676735649653 6.7520769048088232 9.0 1 8.3623853096075429 4.5442168559874538 1 5.4534333903414156 3.1642590931727219 3.6197515703350098 2.0728718407019104 0.94323562683356721 1.4609581292946623 4.3251014800367926 2.8888019620815086 4.9475750600893562 5.9475896322488451 6.2190740332972938 1 3.2279897249771001 4.8217194173724298 3.6914431525436742 3.5100629332041571 8.0724870520481353 1 6.0261126542408983 4.329412887091455 3.877078107245767 7.5345933650843904 2.0868835058876938 2.3066846490188087 3.0233856927320915 7.3991104839936321 1 4.4542750633966746 7.7971731535848834 4.5966394548221867 6.9001955328956059 </DataArray>
</Points>
<Cells>
<DataArray Name="connectivity" format="ascii" type="Int32">0</DataArray>
<DataArray Name="offsets" format="ascii" type="Int32">0</DataArray>
<DataArray Name="types" format="ascii" type="UInt8">1</DataArray>
</Cells>
<PointData>
<DataArray Name="Points" NumberOfComponents="3" format="ascii" type="Float32">0.90287833713469645 1 0.93652596345772832 3.2655455764211991 1.9750997061497613 0.95583010048774475 6.183832929050884 1 0.96052489521210516 6.0132104614748796 2.3419558658322313 2.1390656320924162 2.98597500939848 1.055674119220795 4.1112151552803367 4.855189812261905 1.1731290523655773 4.0970056070411545 4.7872620940894102 1 2.4095664150130567 9.0 1.1195990389224202 3.1719366649710121 2.8288657659503564 1 5.5518966540456285 4.7913639255520106 1 7.1102335326080324 6.2360019304511747 1 5.7653263414952045 0.94076347497693102 1.0540786759597875 8.7086597502011571 3.3747293859370657 1 7.0125729604592371 7.6264385053285677 1.1391963402543006 7.5541383346490498 3.8468833556725754 1 8.9910988836503929 4.4824985642700605 1 0.92632452336474491 9.0 1.1126525633641933 1.2017635115559047 0.96237617974516598 1 2.7920067222536402 1.9486827226076893 3.8703032110513598 3.6972395747625235 7.8590822540966254 3.6115187285177504 4.4679844171575729 6.285721954172927 2.2959518825426879 8.7505869350724623 1.1457217348520385 1 6.3022213234470987 8.4652996804161447 2.7161174173470481 8.5214959591398571 3.7631102460786909 2.4941611103894923 6.2623646986934718 4.7154520762181971 2.9244245616838445 1.2822420613129006 7.3412883206483279 4.0448138217153389 1.4913780763893212 1.9606125317478691 2.3834729546700868 5.0726673151837165 3.8145256588140817 3.5908341209587062 4.9998244718902916 6.5804641119314233 2.3590842414683095 3.8694946341990719 6.4764278325588824 4.1323511032155693 3.3821547352881871 0.99371843941232141 2.9324702767000002 9.0 8.5920098625735477 2.2888469621219811 6.6941157578275945 4.6414559782798728 2.307230869137062 8.4369646341222193 9.0 3.0619234837605345 0.99933179240319336 2.0134385957342027 1.441150048714501 1.3649839258762211 8.823450089127034 1.9987960473315185 4.7425143471913715 6.3272384863486293 3.9742105151171563 5.9741416799683069 1.2959111056228974 4.1953767824538231 7.2960773116124056 6.9608827296405114 3.9159039022149891 8.4905974422350763 2.8019664756409406 3.708703321590141 9.0 3.1211949044713125 1 2.5297027721002685 7.3833271047722659 2.2714771986551421 0.93565229104432346 3.923169283809695 2.4157083818420122 3.2173787373317855 5.537236276811524 2.6436487953028971 5.0146818758354268 7.5196391420574837 1 2.1882763299166403 5.6071117814576121 2.5633182518396671 6.8200278566842316 2.2458503047366318 1 7.923722927080691 7.2634661401289442 1 9.0 2.8992200322967965 2.5391516125316458 7.8647369763831598 7.8718225855408557 2.6755081812647394 2.7682261449785881 1.310537133846077 3.2543651118344066 1.6294819992635703 9.0 3.602216050274377 5.851122024554102 6.1496782952724445 1 7.5580652879915808 1.4170843003992291 2.5495676735649653 6.7520769048088232 9.0 1 8.3623853096075429 4.5442168559874538 1 5.4534333903414156 3.1642590931727219 3.6197515703350098 2.0728718407019104 0.94323562683356721 1.4609581292946623 4.3251014800367926 2.8888019620815086 4.9475750600893562 5.9475896322488451 6.2190740332972938 1 3.2279897249771001 4.8217194173724298 3.6914431525436742 3.5100629332041571 8.0724870520481353 1 6.0261126542408983 4.329412887091455 3.877078107245767 7.5345933650843904 2.0868835058876938 2.3066846490188087 3.0233856927320915 7.3991104839936321 1 4.4542750633966746 7.7971731535848834 4.5966394548221867 6.9001955328956059 </DataArray>
<DataArray Name="forces" NumberOfComponents="3" format="ascii" type="Float32">-0.7235705556069375 -0.32647550824518301 -0.47289083127832399 -0.0055484668120994443 0.4401734606291996 -0.3290721944856933 -0.0012421400527913018 -0.38128148012233204 -0.29409528895353365 0.13238973226156781 0.39490804741660446 0.09216755490165443 -0.063381262747715481 -0.21286838634004279 -0.04600855397169247 0.03416650437788793 -0.091277798003946087 -0.053457192437654177 0.060871282482379885 -0.29412915467884859 -0.06584933165175183 0.22792668229772436 -0.1215400223932874 -0.014139346057511687 -0.25667168559195008 -0.38398040224975194 0.15004712849335769 -0.026800921707233853 -0.28539866603331088 0.1617366029248149 0.0026594902675488308 -0.061891503275132084 0.0073425511894269768 -0.44132075232907192 -0.084328012511057121 0.24684610221097519 -0.049610736886460824 -0.40047109806794812 0.11229840284704275 0.029174888701792953 0.015856986085197602 -0.15348345747080139 -0.11505200949634493 -0.30953232442737894 0.17726829001724273 -0.060772316672084221 -0.3237583758507242 -0.54889304806808537 0.19030649234571367 -0.04272637234541253 -0.16554327624337845 -0.28030294913300224 -0.40493450673746167 -0.068286098044475413 -0.024837657371596707 0.27236422039399738 0.11679206434606747 0.018120510125020292 0.14119533861048333 0.014229285251850132 0.049838928067434146 0.25737120993093476 0.19670845939870707 -0.23610637631908166 -0.37162132799440373 -0.068398135875150701 0.0028473251605344654 0.15586513189453888 0.12498777517122277 0.052376962517925951 0.18594648734802985 0.014802396467060858 0.029449325891704015 0.25089159474178868 -0.19509020014883835 -0.031264230966724191 0.19783615525693876 0.013535821472759321 0.17027614097959168 0.58295500543049772 -0.03268221321350212 -0.050957631126928964 0.13780911165174373 -0.13609276450938071 0.025830287840530541 0.30958006553130291 0.1224337416440951 0.13875977285826413 0.28170950470319778 -0.16119847259024767 -0.046798542677433677 0.096391720724963312 0.020287138076258007 0.20849836379230441 0.24206137311644227 0.18380709070446877 -0.03887617967260204 0.22124387793142986 0.12509706385594882 0.18352642016938156 0.13242069500481479 -0.004978244068500645 0.11715989922708647 0.13933868394693857 -0.084571515645602252 0.31585151086011243 0.22799415760809832 0.040658443828275173 0.04357940572400637 0.26447771884339666 -0.073107118335574955 -0.021285827346952783 0.26022259558716393 0.08850900089243964 -0.011858402100834685 0.22760567414103466 0.031673579440030283 0.023156105901455577 0.28521933276367673 0.26091719987784268 -0.057449301768210809 -0.60402750773917824 -0.19819246538554963 0.12593207658396577 0.090567176781700703 -0.47939981820189581 -0.025068491632994572 0.11693324156082568 0.020054324593166976 -0.30700822588056453 0.097315620582298853 0.1152879711082764 0.038800966025797662 -0.4080044512301908 0.055240823943967926 0.1102958519005139 0.16622486219900734 0.10533847361510404 -0.1536888385903673 -0.34197290590345591 0.10387371939800977 0.061781937546307036 -0.34089354523804422 0.74501458712712265 -0.020273744824993351 0.20218200517881871 0.017561848328909405 0.30367593298502121 0.25044789159436398 -0.027035684742881663 -0.15032550199835498 0.11502398948955951 -0.12969130204005067 0.31074336301339212 0.29538464003205545 -0.096163145732882843 -0.057461667430431879 -0.39387278307370066 0.15977618875361349 -0.11040318741729011 0.12453704623231752 0.15996219603205725 0.54331061989486684 -0.22421107411558389 0.13595294843805439 -0.079981374906161265 -0.19030634380833383 0.1034399616493662 -0.10223374175101495 0.24393540291394933 -0.071565308464003261 -0.42290286038119845 -0.21893741609436629 0.207664243836157 -0.054355638362358662 0.080157503991749396 0.054176962976117078 0.083528888396960682 -0.67168273846475879 -0.065070238956909582 0.058708281070013447 0.30759020101543533 -0.10140053632056496 0.13657644801639918 -0.56518601999995899 -0.14933167032993433 -0.037120059926429916 0.2068207099093852 -0.049802222899569364 -0.0546408306527284 0.24053255530459811 0.078101580363876502 0.22357054075332999 -0.40087168764253334 -0.17842897036967839 0.089476884601842527 0.14548013094378642 0.080901226298909529 </DataArray>
<DataArray Name="radii" format="ascii" type="Float32">1 1 1 1 1 1 1 1 1 1 1 1 1 1 1 1 1 1 1 1 1 1 1 1 1 1 1 1 1 1 1 1 1 1 1 1 1 1 1 1 1 1 1 1 1 1 1 1 1 1 1 1 1 1 1 1 1 1 1 1 1 1 1 1 1 1 </DataArray>
</PointData>
<CellData/>
</Piece>
</UnstructuredGrid>
</VTKFile>
