<?xml version="1.0" ?>
<VTKFile byte_order="LittleEndian" type="UnstructuredGrid" version="0.1">
<UnstructuredGrid>
<Piece NumberOfCells="0" NumberOfPoints="51">
<Points>
<DataArray NumberOfComponents="3" format="ascii" type="Float32">3.5753526161876121 1.717187917247698 10.0 4.7940995569069838 1.677669357422062 5.5826476982245632 5.0207862352608492 1 3.5625840084760307 6.5035753894306696 1.7090585567943244 3.4413410758627023 1.7434236139148696 1.6518679810548802 1.7646272957855087 6.1449619355198557 1 0.95737066453803554 7.6746846994031399 1 0.95695315215556931 10.0 1.6550804142378328 3.8221712921069337 3.154306930348203 3.0247351592174674 0.95883647766798463 4.8926025036216743 1.703280182050698 8.8400843673029694 6.9776885955740733 3.7165257170876171 6.283049465801275 1.7023982972042577 1.686155845731564 3.8397847844744555 5.378460771454793 1.7403647861377713 1.7369239378480335 10.0 1.669506309227202 1.7219542092139624 7.3266683938618842 4.6227239556046262 2.766872668877459 1.7740992525935486 3.9784767606309734 7.0049461764016447 10.0 4.0769117247466733 1.735650018605575 1.7251895547286034 1.6809999410683734 8.0697810866307407 3.8055621039549452 1.672619433256942 1.7223724161309377 10.0 1.6905595820375745 10.0 3.3874983614665259 1 4.3530851972189 9.777953014472045 4.5120250974397189 7.8397646110431118 6.3721851073010036 1.6801923390453557 10.0 7.5483157019015881 1.6570015498417805 5.4714148691824374 0.96308666544443644 2.2633866986063884 0.96299331673013411 3.5146840764906582 3.5138628418583049 5.692372058142797 10.0 1.6713519959010952 8.3762835372513944 6.7146154527830264 3.7220295912026002 8.2299733743332215 4.3773378951550157 4.7455616829688214 1.8011828731216382 8.1688947385696835 3.8809669500904662 4.7087181953017305 1.7306824546831001 1.7004143957096391 10.0 4.5641093279745615 3.7416422859775 7.239119916465012 8.0852554220262167 1.7322819536105742 1.7298910089104502 1.7701840027706415 4.0159128332588949 4.2025815013902212 10.0 3.0788001664138669 6.1035746700175446 4.9038795600227436 3.7935626590674123 10.0 6.0606864930606061 1.6643397104014082 7.151732160368077 1.706124136073732 1.6642911602752697 5.814881550946736 5.1768935553922564 4.0621330421815136 4.5636757582993273 10.0 3.9473445034289374 3.9951675925248584 6.4979769079548841 3.8628581794080112 0.97330242091292418 1.5948297887350489 3.8332281623503017 9.231953909908583 8.0242088899574675 1.6669334024677218 3.6476454630001611 3.4117934436566784 1.6648267014769327 7.0291654728614628 3.6707387660682143 1.7695325512573494 3.60344494621275 7.6356299112856787 3.3631552310924073 10.0 10.0 3.7352147620713372 9.85533149430875 8.1680395500383316 1 10.0 7.9902516493268099 1.6577268081779923 7.9359144885119806 10.0 1.6205081467363711 6.2013862872699281 1.7516425539330087 4.4291089519179083 1.7697570145494643 </DataArray>
</Points>
<Cells>
<DataArray Name="connectivity" format="ascii" type="Int32">0</DataArray>
<DataArray Name="offsets" format="ascii" type="Int32">0</DataArray>
<DataArray Name="types" format="ascii" type="UInt8">1</DataArray>
</Cells>
<PointData>
<DataArray Name="Points" NumberOfComponents="3" format="ascii" type="Float32">3.5753526161876121 1.717187917247698 10.0 4.7940995569069838 1.677669357422062 5.5826476982245632 5.0207862352608492 1 3.5625840084760307 6.5035753894306696 1.7090585567943244 3.4413410758627023 1.7434236139148696 1.6518679810548802 1.7646272957855087 6.1449619355198557 1 0.95737066453803554 7.6746846994031399 1 0.95695315215556931 10.0 1.6550804142378328 3.8221712921069337 3.154306930348203 3.0247351592174674 0.95883647766798463 4.8926025036216743 1.703280182050698 8.8400843673029694 6.9776885955740733 3.7165257170876171 6.283049465801275 1.7023982972042577 1.686155845731564 3.8397847844744555 5.378460771454793 1.7403647861377713 1.7369239378480335 10.0 1.669506309227202 1.7219542092139624 7.3266683938618842 4.6227239556046262 2.766872668877459 1.7740992525935486 3.9784767606309734 7.0049461764016447 10.0 4.0769117247466733 1.735650018605575 1.7251895547286034 1.6809999410683734 8.0697810866307407 3.8055621039549452 1.672619433256942 1.7223724161309377 10.0 1.6905595820375745 10.0 3.3874983614665259 1 4.3530851972189 9.777953014472045 4.5120250974397189 7.8397646110431118 6.3721851073010036 1.6801923390453557 10.0 7.5483157019015881 1.6570015498417805 5.4714148691824374 0.96308666544443644 2.2633866986063884 0.96299331673013411 3.5146840764906582 3.5138628418583049 5.692372058142797 10.0 1.6713519959010952 8.3762835372513944 6.7146154527830264 3.7220295912026002 8.2299733743332215 4.3773378951550157 4.7455616829688214 1.8011828731216382 8.1688947385696835 3.8809669500904662 4.7087181953017305 1.7306824546831001 1.7004143957096391 10.0 4.5641093279745615 3.7416422859775 7.239119916465012 8.0852554220262167 1.7322819536105742 1.7298910089104502 1.7701840027706415 4.0159128332588949 4.2025815013902212 10.0 3.0788001664138669 6.1035746700175446 4.9038795600227436 3.7935626590674123 10.0 6.0606864930606061 1.6643397104014082 7.151732160368077 1.706124136073732 1.6642911602752697 5.814881550946736 5.1768935553922564 4.0621330421815136 4.5636757582993273 10.0 3.9473445034289374 3.9951675925248584 6.4979769079548841 3.8628581794080112 0.97330242091292418 1.5948297887350489 3.8332281623503017 9.231953909908583 8.0242088899574675 1.6669334024677218 3.6476454630001611 3.4117934436566784 1.6648267014769327 7.0291654728614628 3.6707387660682143 1.7695325512573494 3.60344494621275 7.6356299112856787 3.3631552310924073 10.0 10.0 3.7352147620713372 9.85533149430875 8.1680395500383316 1 10.0 7.9902516493268099 1.6577268081779923 7.9359144885119806 10.0 1.6205081467363711 6.2013862872699281 1.7516425539330087 4.4291089519179083 1.7697570145494643 </DataArray>
<DataArray Name="forces" NumberOfComponents="3" format="ascii" type="Float32">0.022293263778845968 -0.042829993821711897 2.5034358723366532 0.18985693023417605 -1.267560991436258 0.27775895657347083 0.36981903868211963 -1.8098562542715109 0.52160275663032518 0.088671594452593316 -0.29476933022358776 0.0995781308523912 -1.7533749731061254 -2.0671788306852461 -1.0962455998417864 0.10513486283870677 -1.2043131667178368 -1.321137935651898 -0.15315932860560266 -1.292296412606148 -1.3340771813873329 2.7352975114020501 -1.9676213945264691 0.0062528831666444074 0.16049302241463426 0.62366396862843876 -1.2757105014316268 -0.058542634967900853 -0.4738485956517095 0.26126068849994294 0.12289850276992081 3.0991286196114181 0.3118489933018721 -3.0248023045709198 -1.0045538034365054 0.24621094432635712 -0.070380021122798508 0.67545098308036633 -1.9548082942754776 2.5254785601506331 -1.5205443542758394 -2.4187394386521346 -0.088979965030730815 2.1727768578170141 -0.3162133163717778 -0.80269747556659365 2.6510966803276004 0.59858875588695482 1.0013051257666639 2.1140162771300099 -1.9942886901092431 -2.3184719198645851 -1.1643419204533254 0.055398738773620892 -0.07609773823840818 -1.424064636506166 -2.4057786683989622 1.8814924818486536 -0.86807635124471516 2.6180648445262191 0.015382456419669455 -2.100000332821109 0.73521819378513298 0.31760659062795304 2.4902712388249983 0.27237574696334721 0.046222331229528346 -1.1893705458812278 2.6625019395664906 -0.10326504113664325 -1.9080829312029777 0.28537334098621514 -1.1439917156643828 0.26532130661938447 -1.1468847123853634 -0.066328235982722208 0.7431021519171439 0.028078824508766462 1.9676552644208412 -1.4633441503368594 0.26058855595328478 -0.45815518733754207 0.95769062409980577 0.24389862403846241 0.26601707227171101 1.9083512912450837 -0.46368049783854182 -0.1920948622609987 0.7402494883415458 -0.089071291098314603 -2.148239885328155 -0.56266300032437921 2.1882467774538643 -0.12041411882891914 0.96073434272728364 0.25197673796220815 0.41452723157621862 0.42495360695474343 -2.1727678077770509 -0.92403610335759412 2.5872456524578546 0.1748683426136366 1.9973017602483285 2.1812116802533583 0.18614600027017567 0.0028552494302202525 1.040981299537717 0.25187371826748811 -0.00083077311835388912 -1.6806638971465202 0.00066053438933977304 -2.9093337658464344 -1.6821685280005347 0.22249969570559469 -0.34720739896287006 2.3834221326422678 -0.05586465046390296 1.6901933399941997 2.8483102839559846 0.38773352585810367 0.13466423757825091 -0.079829685140606815 -0.82739231423095971 -0.14598098265015866 0.93585754282446154 0.55936662449638708 -0.19574691509461584 -1.6002820440148018 0.41316529966088522 0.12583112885211153 -1.665571417349984 -0.11202310042686528 -0.028289494714274849 0.75577932989366348 -0.18035186700314981 -0.14636400496161855 2.5336888392813677 1.8718704570062199 0.46908521843862849 0.99327936803406591 0.71601454044394508 0.0041676726737305408 -1.2856172707226381 0.73176321800980149 -0.069899703603306218 -1.8856062425393216 0.074664636408353746 1.9928282282049121 -3.0390604311128802 0.10197192569309632 -1.4986594507752764 2.2633947600227708 -0.93726901752246206 </DataArray>
<DataArray Name="radii" format="ascii" type="Float32">1.7999999999999998 1.7999999999999998 1 1.7999999999999998 1.7999999999999998 1 1 1.7999999999999998 1 1.7999999999999998 1.7999999999999998 1.7999999999999998 1.7999999999999998 1.7999999999999998 1.7999999999999998 1.7999999999999998 1.7999999999999998 1.7999999999999998 1.7999999999999998 1.7999999999999998 1 1.7999999999999998 1.7999999999999998 1.7999999999999998 1 1 1.7999999999999998 1 1.7999999999999998 1 1.7999999999999998 1 1.7999999999999998 1.7999999999999998 1.7999999999999998 1 1.7999999999999998 1.7999999999999998 1.7999999999999998 1.7999999999999998 1 1 1.7999999999999998 1.7999999999999998 1.7999999999999998 1.7999999999999998 1 1 1.7999999999999998 1.7999999999999998 1.7999999999999998 </DataArray>
</PointData>
<CellData/>
</Piece>
</UnstructuredGrid>
</VTKFile>
