<?xml version="1.0" ?>
<VTKFile byte_order="LittleEndian" type="UnstructuredGrid" version="0.1">
<UnstructuredGrid>
<Piece NumberOfCells="0" NumberOfPoints="35">
<Points>
<DataArray NumberOfComponents="3" format="ascii" type="Float32">0.9753666566910022 1 0.98128496842947699 2.83713684629436 1 0.93436904618743688 6.3237628674394575 1 0.982245609465494 8.4510845364616625 1.4588395244620029 1.5569113685039295 2.1626278182328607 1.4987712542499558 4.6650383525502663 2.7201990963189449 1.538393450796635 2.4783152539644782 6.7129959061253484 1.490705294778726 4.1000756195038308 8.4356090602206919 2.6712103472218116 6.4022913593698094 2.819759029878441 1 6.8909302957278555 4.7487908170872881 1.5054809267474296 6.0971984067423843 6.9926674071447827 1 6.2907164434992735 0.96963277325596897 1 6.2741076016187476 3.3047686772379268 3.3263581034816871 8.4188038125342857 9.0 1 5.6288547197878769 5.2613451910099096 1.4825358097698196 8.4593324114141044 6.4576364948017702 3.2454873712595651 1.5714678918526481 0.93937761284530608 1 2.8909015741528403 4.5726620037100236 1 0.9675765161118286 8.4860711463155098 3.1760564756448817 3.5553372552654126 9.0 1 3.8621047887777187 2.7541469078579808 3.0505307108248352 6.1831811630284426 1.5141199179448446 1.5017265915741207 8.4279780381287885 7.6079366820819478 1.5242808318725114 8.5 9.0 3.5815464262161214 0.991444903461836 0.96584445212149395 2.9160167334970568 5.5743266831277092 4.4321061804538155 1 3.8711309777746057 5.1767132276489081 1.3531577864757991 2.4110216333826076 9.0 4.8279303648659173 6.1846577397351252 4.3795168410681482 3.3345051119394538 4.2283829037865779 3.3928524432003471 1 9.0 5.9822293637737198 3.866769685409094 7.4536314368812446 3.7909975745115436 3.5647578916126585 1.5476614065612952 6.7904907306321709 4.6171837766271953 4.8597771271434089 0.97868467283970439 3.6125695684001715 9.0 9.0 1 7.587646820693652 </DataArray>
</Points>
<Cells>
<DataArray Name="connectivity" format="ascii" type="Int32">0</DataArray>
<DataArray Name="offsets" format="ascii" type="Int32">0</DataArray>
<DataArray Name="types" format="ascii" type="UInt8">1</DataArray>
</Cells>
<PointData>
<DataArray Name="Points" NumberOfComponents="3" format="ascii" type="Float32">0.9753666566910022 1 0.98128496842947699 2.83713684629436 1 0.93436904618743688 6.3237628674394575 1 0.982245609465494 8.4510845364616625 1.4588395244620029 1.5569113685039295 2.1626278182328607 1.4987712542499558 4.6650383525502663 2.7201990963189449 1.538393450796635 2.4783152539644782 6.7129959061253484 1.490705294778726 4.1000756195038308 8.4356090602206919 2.6712103472218116 6.4022913593698094 2.819759029878441 1 6.8909302957278555 4.7487908170872881 1.5054809267474296 6.0971984067423843 6.9926674071447827 1 6.2907164434992735 0.96963277325596897 1 6.2741076016187476 3.3047686772379268 3.3263581034816871 8.4188038125342857 9.0 1 5.6288547197878769 5.2613451910099096 1.4825358097698196 8.4593324114141044 6.4576364948017702 3.2454873712595651 1.5714678918526481 0.93937761284530608 1 2.8909015741528403 4.5726620037100236 1 0.9675765161118286 8.4860711463155098 3.1760564756448817 3.5553372552654126 9.0 1 3.8621047887777187 2.7541469078579808 3.0505307108248352 6.1831811630284426 1.5141199179448446 1.5017265915741207 8.4279780381287885 7.6079366820819478 1.5242808318725114 8.5 9.0 3.5815464262161214 0.991444903461836 0.96584445212149395 2.9160167334970568 5.5743266831277092 4.4321061804538155 1 3.8711309777746057 5.1767132276489081 1.3531577864757991 2.4110216333826076 9.0 4.8279303648659173 6.1846577397351252 4.3795168410681482 3.3345051119394538 4.2283829037865779 3.3928524432003471 1 9.0 5.9822293637737198 3.866769685409094 7.4536314368812446 3.7909975745115436 3.5647578916126585 1.5476614065612952 6.7904907306321709 4.6171837766271953 4.8597771271434089 0.97868467283970439 3.6125695684001715 9.0 9.0 1 7.587646820693652 </DataArray>
<DataArray Name="forces" NumberOfComponents="3" format="ascii" type="Float32">-0.35892552497646762 -0.063629569602119962 -0.27269146729861532 -0.023444213036620198 -0.35261096866590219 -0.95629018994250603 -0.014799699962206841 -0.36724729612473272 -0.25869423664091529 0.74433842932657623 -1.1193322259636675 -0.62783234440594482 -0.1499357812181118 -0.53749820946115967 0.03125777650108516 0.037273084309773941 0.039825685141604672 0.084803631694200909 -0.042425518403368702 -0.65502503890264274 0.022643503658468789 0.51884961262897966 0.93981904960376306 -0.076792032943937993 0.024979144364824402 -0.28318759745479627 -0.014909889510364982 0.0046075358009302902 -0.43973345648520801 0.037126406045749655 -0.033384581602597108 -0.52178203995194283 0.069203350894920468 -0.44247232965731675 -0.22261644315718288 0.069754367230440928 0.029760895198250814 0.96124169615537935 0.27398506977988035 0.20546320658188336 -0.57223202842946819 -0.072257916163310842 0.095372506691523112 -0.77406030986961927 0.86451589813828478 -0.16558115353721303 0.88377024452361674 -0.41573333213493807 -0.88331177225453006 -0.34257872610606888 -0.044989793917297238 -0.028934296097978873 -0.13953009864568583 -0.47243347482909814 1.2541184925286228 0.9427551905972873 -0.031784826579728087 0.34826764671652016 -0.41019159069123301 -0.040010597120211572 0.0075631021587148316 0.32670196701232923 0.077603942064279272 -1.2513345488677294 -0.49443681956972041 0.40766013355234254 0.10156734994584393 -0.16580532046710772 1.4570719064568161 0.12465390822784726 0.41103985851791358 -0.12465390822784732 -0.49767089263411901 0.40525231109567128 0.23828887906356086 -0.048389311974949986 -0.54758952806578587 0.11351740666619756 0.048547535130185643 0.019753484559160095 0.040928059539850403 0.11226877689024865 0.33583093063044894 -0.022532717414442439 -0.15391602209577199 0.96071453604718682 -0.016958457420449713 0.067438793648529727 -0.54015677131099926 0.3983188026836556 0.078099695944831918 1.0791987140722878 0.17682944649009796 -0.27221013045624964 0.74415353702999332 -0.76261094123001527 -0.1268377363133153 0.91782148477653136 -0.030983193917194229 -0.3105796438220263 0.40983144589746084 0.16606802080842192 0.84384287359151933 -0.6687987747976275 -0.11413785179827507 </DataArray>
<DataArray Name="radii" format="ascii" type="Float32">1 1 1 1.5999999999999999 1.5999999999999999 1.5999999999999999 1.5999999999999999 1.5999999999999999 1 1.5999999999999999 1 1 1.5999999999999999 1 1.5999999999999999 1.5999999999999999 1 1 1.5999999999999999 1 1 1.5999999999999999 1.5999999999999999 1 1 1 1 1 1.5999999999999999 1 1.5999999999999999 1.5999999999999999 1.5999999999999999 1 1 </DataArray>
</PointData>
<CellData/>
</Piece>
</UnstructuredGrid>
</VTKFile>
