<?xml version="1.0" ?>
<VTKFile byte_order="LittleEndian" type="UnstructuredGrid" version="0.1">
<UnstructuredGrid>
<Piece NumberOfCells="0" NumberOfPoints="30">
<Points>
<DataArray NumberOfComponents="3" format="ascii" type="Float32">1.9745980799991427 1.9015018163503949 9.9814702495254224 5.0662689489215769 1.8351053341236205 4.9989746620101965 6.4749718623121817 1 2.9150496914780621 7.7421677780690583 1.9186480215329382 1.9753141763120292 1.9281391980067826 1.8128929249689298 1.9624550846488598 5.9858433280054211 1 0.96634835525389373 7.7496296652764292 1 0.95133713595297398 10.0 1.8748212514261369 4.3721859835736403 2.7740743651744393 3.3043542441541511 0.94729030537051828 4.4168591993090551 1.8972796287367524 7.9854435394644847 6.4619150811965174 3.6091974781608509 5.0704849428713477 1.9099614610401212 1.9087242085372034 3.9931734123000839 4.9424560362823931 3.746779410134184 1.9719385068973629 10.0 1.8410763989750547 1.9385688697219923 7.2055152783803305 5.211195461200985 1.9824759313111824 1.9726117088226423 4.3985076557281921 6.4049235940013647 10.0 4.3204052110912974 1.9684216823762075 1.9377453305906942 1.8381144484124923 6.5029563101414389 4.518272168752306 1.8390526653203632 1.9501034952144454 9.7982196757262852 1.8888142917426878 10.0 3.3660515061092804 1 4.1144686514005295 10.0 3.976789372909483 7.2917971891679398 6.8797928120542391 1.8890459082113071 8.6145775219737271 7.8141205635843329 1.834452465067608 5.1874898990362794 0.96101514849184044 3.1725713138417206 0.96829354141574142 3.9506682200021945 3.8174270741389154 5.3360350966990433 10.0 1.8230032911703684 7.1144783108718759 7.2525534279221793 4.2041392645454732 7.0748946471240961 1.9745648367866293 5.2207067432397984 2.1579294356077101 8.8105273090401344 4.494453328309695 4.3273416337437052 </DataArray>
</Points>
<Cells>
<DataArray Name="connectivity" format="ascii" type="Int32">0</DataArray>
<DataArray Name="offsets" format="ascii" type="Int32">0</DataArray>
<DataArray Name="types" format="ascii" type="UInt8">1</DataArray>
</Cells>
<PointData>
<DataArray Name="Points" NumberOfComponents="3" format="ascii" type="Float32">1.9745980799991427 1.9015018163503949 9.9814702495254224 5.0662689489215769 1.8351053341236205 4.9989746620101965 6.4749718623121817 1 2.9150496914780621 7.7421677780690583 1.9186480215329382 1.9753141763120292 1.9281391980067826 1.8128929249689298 1.9624550846488598 5.9858433280054211 1 0.96634835525389373 7.7496296652764292 1 0.95133713595297398 10.0 1.8748212514261369 4.3721859835736403 2.7740743651744393 3.3043542441541511 0.94729030537051828 4.4168591993090551 1.8972796287367524 7.9854435394644847 6.4619150811965174 3.6091974781608509 5.0704849428713477 1.9099614610401212 1.9087242085372034 3.9931734123000839 4.9424560362823931 3.746779410134184 1.9719385068973629 10.0 1.8410763989750547 1.9385688697219923 7.2055152783803305 5.211195461200985 1.9824759313111824 1.9726117088226423 4.3985076557281921 6.4049235940013647 10.0 4.3204052110912974 1.9684216823762075 1.9377453305906942 1.8381144484124923 6.5029563101414389 4.518272168752306 1.8390526653203632 1.9501034952144454 9.7982196757262852 1.8888142917426878 10.0 3.3660515061092804 1 4.1144686514005295 10.0 3.976789372909483 7.2917971891679398 6.8797928120542391 1.8890459082113071 8.6145775219737271 7.8141205635843329 1.834452465067608 5.1874898990362794 0.96101514849184044 3.1725713138417206 0.96829354141574142 3.9506682200021945 3.8174270741389154 5.3360350966990433 10.0 1.8230032911703684 7.1144783108718759 7.2525534279221793 4.2041392645454732 7.0748946471240961 1.9745648367866293 5.2207067432397984 2.1579294356077101 8.8105273090401344 4.494453328309695 4.3273416337437052 </DataArray>
<DataArray Name="forces" NumberOfComponents="3" format="ascii" type="Float32">-0.66600137744838894 0.053296566664032693 1.0828460333902665 0.0016122504734635834 -1.6875225768994142 0.66246749606593891 -0.2297036977281115 -1.0243909611740916 0.45966227175756302 0.15475587257353302 0.50284511532496634 -0.64722637419068263 -1.8840856561399197 -2.2698996213500751 -0.9843730449981255 -0.022480479775993878 -0.79172086763729621 -0.88229715523686481 -0.11812804171067637 -1.260042671986572 -1.2758694809215019 2.2036119309327606 -0.64622901998679794 0.344512162112878 -0.0060502733907840389 0.56390615047527304 -1.3819714898296791 0.10744873233413599 -0.057403048421621999 0.7479390489662523 0.049151804736768945 2.4259376629042766 0.38201487915443905 -2.3606794670913152 0.24265717974858417 0.3994818495908008 0.12602535025497613 2.05570520309558 -0.73573151395579584 2.113655115014383 -1.5309699456119115 -1.6106348410665008 0.011452678858138145 1.9780748380774951 -0.45945557992698183 -0.71808113912106453 2.1747953864305223 0.58497493058735073 1.709906691533442 2.3344035296808086 -0.82793753520358759 -1.6322268386717498 -1.6086279791201661 0.79482553701898773 0.044748781700403667 -1.5840292970927352 -1.3082137458868524 0.56623753772323571 -0.27935186561424463 1.9272140693305468 0.41744654288713734 -1.4626920849884588 0.24453635225193379 0.45717926704784501 2.6218544796059415 0.20688985586345343 0.012341729910212804 -0.27327921885624196 0.97337514821491744 -0.06193526460064961 -1.7046398534904439 0.52355531433454439 -1.0221260756344068 0.35796680154838906 -0.83129720471578472 -0.23605837715263989 0.62290045324491783 -0.15884724181730236 1.3907427068270264 -2.004820532193091 0.4732466236809032 0.076538189227553372 0.49018866543908907 0.53342240795157303 -0.66687296610483648 2.1881406212951107 0.42856653242751208 0.18706264401677472 0.49941397916567953 0.24597597571903451 </DataArray>
<DataArray Name="radii" format="ascii" type="Float32">1.9999999999999998 1.9999999999999998 1 1.9999999999999998 1.9999999999999998 1 1 1.9999999999999998 1 1.9999999999999998 1.9999999999999998 1.9999999999999998 1.9999999999999998 1.9999999999999998 1.9999999999999998 1.9999999999999998 1.9999999999999998 1.9999999999999998 1.9999999999999998 1.9999999999999998 1 1.9999999999999998 1.9999999999999998 1.9999999999999998 1 1 1.9999999999999998 1 1.9999999999999998 1 </DataArray>
</PointData>
<CellData/>
</Piece>
</UnstructuredGrid>
</VTKFile>
