<?xml version="1.0" ?>
<VTKFile byte_order="LittleEndian" type="UnstructuredGrid" version="0.1">
<UnstructuredGrid>
<Piece NumberOfCells="0" NumberOfPoints="51">
<Points>
<DataArray NumberOfComponents="3" format="ascii" type="Float32">1.0 1.0 2.0 3.6001612570516199 1.9018088301671734 2.0 7.0 1.0 2.0 10.306612266209266 2.4632784928273939 2.0 13.0 1.0 2.0 16.0 1.0 2.0 19.0 1.0 2.0 21.722848534789222 1.5069120359878547 2.0 24.959642704986816 1.3425181079885837 2.0 28.0 1.0 2.0 30.659840994538758 2.4143556375856381 2.0 34.0 1.0 2.0 36.549704545493135 1.4087541088023836 2.0 39.742954481619236 2.1889365309747988 2.0 43.159142731754997 1 2.0 45.620276902800292 1.7888883128861923 2.0 49.0 1.0 2.0 52.294627551450183 2.6264138556159446 2.0 55.0 1.0 2.0 57.478087880368385 2.209511498091961 2.0 61.0 1.0 2.0 64.44135720431909 1.9573533097233715 2.0 67.0 1.0 2.0 70.0 1.0 2.0 73.0 1.0 2.0 76.0 1.0 2.0 79.0 1.0 2.0 81.851969837552133 1.489843829065908 2.0 85.0 1.0 2.0 87.447717241826311 1.5363006961055004 2.0 90.89990895730871 1.4860504357662636 2.0 94.018067725393735 2.7809742733189555 2.0 97.30763591944924 2.1012911023558289 2.0 100.30999577882271 2.446875354491985 2.0 5.3738790022365723 2.2496169023070558 2.0 9.2153492051070778 1 2.0 21.737088028049747 3.3153832149329268 2.0 25.793977094237885 2.9521434813309502 2.0 31.781678131987693 1 2.0 37.093457336030632 3.1360204044917128 2.0 41.399807101426603 1.4112800735634954 2.0 47.234747085104239 2.6023448950443124 2.0 51.482072312658808 1 2.0 59.135656812045241 1.4812704873786524 2.0 62.635646028689443 2.0508790928836929 2.0 82.374882901012469 3.2220619273194901 2.0 87.75821592905794 3.3175532772040954 2.0 90.557177666766961 3.2621858316105521 2.0 93.621887959337741 1 2.0 95.575473242351421 1.5797598559846753 2.0 99.197279548918758 1 2.0 </DataArray>
</Points>
<Cells>
<DataArray Name="connectivity" format="ascii" type="Int32">0</DataArray>
<DataArray Name="offsets" format="ascii" type="Int32">0</DataArray>
<DataArray Name="types" format="ascii" type="UInt8">1</DataArray>
</Cells>
<PointData>
<DataArray Name="Points" NumberOfComponents="3" format="ascii" type="Float32">1.0 1.0 2.0 3.6001612570516199 1.9018088301671734 2.0 7.0 1.0 2.0 10.306612266209266 2.4632784928273939 2.0 13.0 1.0 2.0 16.0 1.0 2.0 19.0 1.0 2.0 21.722848534789222 1.5069120359878547 2.0 24.959642704986816 1.3425181079885837 2.0 28.0 1.0 2.0 30.659840994538758 2.4143556375856381 2.0 34.0 1.0 2.0 36.549704545493135 1.4087541088023836 2.0 39.742954481619236 2.1889365309747988 2.0 43.159142731754997 1 2.0 45.620276902800292 1.7888883128861923 2.0 49.0 1.0 2.0 52.294627551450183 2.6264138556159446 2.0 55.0 1.0 2.0 57.478087880368385 2.209511498091961 2.0 61.0 1.0 2.0 64.44135720431909 1.9573533097233715 2.0 67.0 1.0 2.0 70.0 1.0 2.0 73.0 1.0 2.0 76.0 1.0 2.0 79.0 1.0 2.0 81.851969837552133 1.489843829065908 2.0 85.0 1.0 2.0 87.447717241826311 1.5363006961055004 2.0 90.89990895730871 1.4860504357662636 2.0 94.018067725393735 2.7809742733189555 2.0 97.30763591944924 2.1012911023558289 2.0 100.30999577882271 2.446875354491985 2.0 5.3738790022365723 2.2496169023070558 2.0 9.2153492051070778 1 2.0 21.737088028049747 3.3153832149329268 2.0 25.793977094237885 2.9521434813309502 2.0 31.781678131987693 1 2.0 37.093457336030632 3.1360204044917128 2.0 41.399807101426603 1.4112800735634954 2.0 47.234747085104239 2.6023448950443124 2.0 51.482072312658808 1 2.0 59.135656812045241 1.4812704873786524 2.0 62.635646028689443 2.0508790928836929 2.0 82.374882901012469 3.2220619273194901 2.0 87.75821592905794 3.3175532772040954 2.0 90.557177666766961 3.2621858316105521 2.0 93.621887959337741 1 2.0 95.575473242351421 1.5797598559846753 2.0 99.197279548918758 1 2.0 </DataArray>
<DataArray Name="forces" NumberOfComponents="3" format="ascii" type="Float32">0.0 0.0 0.0 0.0 0.0 0.0 0.0 0.0 0.0 0.024766569029978713 0.02219497266118374 0.0 0.0 0.0 0.0 0.0 0.0 0.0 0.0 0.0 0.0 0.0 0.0 0.0 0.0 0.0 0.0 0.0 0.0 0.0 -0.012080250835018697 0.0031030580104580725 0.0 0.0 0.0 0.0 0.0 0.0 0.0 -0.041954558474096376 0.0063768304266617632 0.0 0.043567381673177162 -0.02434356057636148 0.0 0.0 0.0 0.0 0.0 0.0 0.0 0.020630394977714937 0.030778324199538146 0.0 0.0 0.0 0.0 0.0 0.0 0.0 0.0 0.0 0.0 0.0 0.0 0.0 0.0 0.0 0.0 0.0 0.0 0.0 0.0 0.0 0.0 0.0 0.0 0.0 0.0 0.0 0.0 0.0 0.0 0.0 0.0 0.0 0.0 0.0 0.0 0.0 0.0 0.0 0.0 0.016899839412085255 0.069219174756659896 0.0 0.0 0.0 0.0 0.024566216178724887 0.020843747172885278 0.0 0.0 0.0 0.0 -0.024766569029978713 -0.04732771388990209 0.0 0.0 0.0 0.0 0.0 0.0 0.0 0.012080250835018697 -0.028235799239176421 0.0 0.0 0.0 0.0 -0.0016128231990807859 -0.032298752307736975 0.0 0.0 0.0 0.0 -0.020630394977714937 -0.055911065428256496 0.0 0.0 0.0 0.0 0.0 0.0 0.0 0.0 0.0 0.0 0.0 0.0 0.0 0.0 0.0 0.0 -0.016899839412085255 -0.094351915985378232 0.0 0.0 0.0 0.0 -0.024566216178724887 -0.045976488401603628 0.0 </DataArray>
<DataArray Name="radii" format="ascii" type="Float32">1 1 1 1 1 1 1 1 1 1 1 1 1 1 1 1 1 1 1 1 1 1 1 1 1 1 1 1 1 1 1 1 1 1 1 1 1 1 1 1 1 1 1 1 1 1 1 1 1 1 1 </DataArray>
</PointData>
<CellData/>
</Piece>
</UnstructuredGrid>
</VTKFile>
