<?xml version="1.0" ?>
<VTKFile byte_order="LittleEndian" type="UnstructuredGrid" version="0.1">
<UnstructuredGrid>
<Piece NumberOfCells="0" NumberOfPoints="68">
<Points>
<DataArray NumberOfComponents="3" format="ascii" type="Float32">0.97328203536263547 2.9281620436325095 2.0 3.7896401979165391 1 2.0 7.5575791273123158 1 2.0 9.114931851335939 2.2522016059029473 2.0 12.582605439284848 1.0658271731592588 2.0 16.230096900573653 1.0 2.0 19.0 1.0 2.0 22.0 1.0 2.0 25.482926785227992 1.267275016118403 2.0 28.0 1.0 2.0 30.720045093369041 1.0 2.0 34.893478822784118 3.2941242474052239 2.0 36.798369989652713 1.0 2.0 38.565380800795076 4.4906879694540702 2.0 42.995439140512254 1.177761476840133 2.0 46.525895310402731 2.376336081820039 2.0 48.303858119131895 1.4599351236965565 2.0 54.498979111466546 2.7177777692139831 2.0 55.498303448468192 1 2.0 58.0 1.0 2.0 60.220901538754156 1.0243556437490278 2.0 63.98295882351276 1.0 2.0 66.951042194753086 2.7501504441537103 2.0 69.934060938385286 2.4389394341222741 2.0 73.324365876062046 1.0 2.0 75.282632862311331 2.1185227314033845 2.0 79.085587928214423 1 2.0 82.0 1.0 2.0 84.994574689423331 1 2.0 88.721142125268543 1.9965204668654104 2.0 91.0 1.0 2.0 93.065532265616085 1.4649579960829904 2.0 96.93060025533542 1 2.0 99.798320160781856 1.2315177921938132 2.0 1.8426504613237094 1.1340047964162339 2.0 7.3233169072293745 5.3213736437608725 2.0 11.106815604441676 2.4144795188091255 2.0 13.83701150163308 3.0822746137199628 2.0 23.482848898120814 3.3617950789846476 2.0 33.114734080673188 1.4660299487533182 2.0 39.281641871928315 1 2.0 43.464574156199703 3.1219740488644976 2.0 44.995674710239363 1.0880526356514348 2.0 47.686727029991808 4.4145943166203585 2.0 51.388049910791814 1 2.0 63.17515388028918 2.8451818065716115 2.0 65.982990440556136 1.0 2.0 71.323141492754303 1.0 2.0 77.259618583954179 1.8159877065756869 2.0 86.721183385884814 2.0093673318812408 2.0 95.156061878758308 3.6861654595512841 2.0 97.860882734955283 3.0378524829324873 2.0 6.1522163977867894 3.8257750920580436 2.0 15.839800034668823 3.1231307155643973 2.0 25.347055895622965 4.094510973938398 2.0 32.882601575057009 3.4554326761790533 2.0 39.869663482257145 2.9117271269644092 2.0 40.962208092471421 5.2150901515303589 2.0 49.97493124570066 4.5789249901416511 2.0 52.519050775378787 2.6168935991720512 2.0 61.085140239487373 4.2388989952102021 2.0 95.052963509044105 1.6888246445019843 2.0 100.38076312147822 5.4679482418304142 2.0 5.2796004664668876 2.0833714201250615 2.0 42.909788309081684 5.6756985403048867 2.0 51.967663421387002 4.5212288073004547 2.0 59.180794860949305 3.6218845363038681 2.0 99.94193654524102 3.514997027941527 2.0 </DataArray>
</Points>
<Cells>
<DataArray Name="connectivity" format="ascii" type="Int32">0</DataArray>
<DataArray Name="offsets" format="ascii" type="Int32">0</DataArray>
<DataArray Name="types" format="ascii" type="UInt8">1</DataArray>
</Cells>
<PointData>
<DataArray Name="Points" NumberOfComponents="3" format="ascii" type="Float32">0.97328203536263547 2.9281620436325095 2.0 3.7896401979165391 1 2.0 7.5575791273123158 1 2.0 9.114931851335939 2.2522016059029473 2.0 12.582605439284848 1.0658271731592588 2.0 16.230096900573653 1.0 2.0 19.0 1.0 2.0 22.0 1.0 2.0 25.482926785227992 1.267275016118403 2.0 28.0 1.0 2.0 30.720045093369041 1.0 2.0 34.893478822784118 3.2941242474052239 2.0 36.798369989652713 1.0 2.0 38.565380800795076 4.4906879694540702 2.0 42.995439140512254 1.177761476840133 2.0 46.525895310402731 2.376336081820039 2.0 48.303858119131895 1.4599351236965565 2.0 54.498979111466546 2.7177777692139831 2.0 55.498303448468192 1 2.0 58.0 1.0 2.0 60.220901538754156 1.0243556437490278 2.0 63.98295882351276 1.0 2.0 66.951042194753086 2.7501504441537103 2.0 69.934060938385286 2.4389394341222741 2.0 73.324365876062046 1.0 2.0 75.282632862311331 2.1185227314033845 2.0 79.085587928214423 1 2.0 82.0 1.0 2.0 84.994574689423331 1 2.0 88.721142125268543 1.9965204668654104 2.0 91.0 1.0 2.0 93.065532265616085 1.4649579960829904 2.0 96.93060025533542 1 2.0 99.798320160781856 1.2315177921938132 2.0 1.8426504613237094 1.1340047964162339 2.0 7.3233169072293745 5.3213736437608725 2.0 11.106815604441676 2.4144795188091255 2.0 13.83701150163308 3.0822746137199628 2.0 23.482848898120814 3.3617950789846476 2.0 33.114734080673188 1.4660299487533182 2.0 39.281641871928315 1 2.0 43.464574156199703 3.1219740488644976 2.0 44.995674710239363 1.0880526356514348 2.0 47.686727029991808 4.4145943166203585 2.0 51.388049910791814 1 2.0 63.17515388028918 2.8451818065716115 2.0 65.982990440556136 1.0 2.0 71.323141492754303 1.0 2.0 77.259618583954179 1.8159877065756869 2.0 86.721183385884814 2.0093673318812408 2.0 95.156061878758308 3.6861654595512841 2.0 97.860882734955283 3.0378524829324873 2.0 6.1522163977867894 3.8257750920580436 2.0 15.839800034668823 3.1231307155643973 2.0 25.347055895622965 4.094510973938398 2.0 32.882601575057009 3.4554326761790533 2.0 39.869663482257145 2.9117271269644092 2.0 40.962208092471421 5.2150901515303589 2.0 49.97493124570066 4.5789249901416511 2.0 52.519050775378787 2.6168935991720512 2.0 61.085140239487373 4.2388989952102021 2.0 95.052963509044105 1.6888246445019843 2.0 100.38076312147822 5.4679482418304142 2.0 5.2796004664668876 2.0833714201250615 2.0 42.909788309081684 5.6756985403048867 2.0 51.967663421387002 4.5212288073004547 2.0 59.180794860949305 3.6218845363038681 2.0 99.94193654524102 3.514997027941527 2.0 </DataArray>
<DataArray Name="forces" NumberOfComponents="3" format="ascii" type="Float32">-0.025746235802090071 0.047041512108863287 0.0 -0.021456201470071309 -0.1195157710106641 0.0 -0.0065097921055995572 -0.0052306530890865715 0.0 -0.0018897824772217409 0.0045412015146446601 0.0 0.0035565862226607393 -0.0032293923486863751 0.0 0.0 0.0 0.0 0.0 0.0 0.0 0.0 0.0 0.0 0.0 0.0 0.0 0.0 0.0 0.0 0.0 0.0 0.0 0.0 0.0 0.0 0.0 0.0 0.0 0.0 0.0 0.0 0.0 0.0 0.0 0.0 0.0 0.0 0.0 0.0 0.0 0.029531220371820537 0.025682426759216521 0.0 0.014164308541622844 -0.023593331438840966 0.0 0.0 0.0 0.0 0.0 0.0 0.0 0.0 0.0 0.0 0.0 0.0 0.0 0.0 0.0 0.0 0.0 0.0 0.0 -2.4680000063067968e-07 3.7767426542718692e-08 0.0 2.4847176563855723e-07 -1.1103686749205067e-07 0.0 0.0 0.0 0.0 -7.1722652967448117e-09 -4.1928725950653993e-09 0.0 7.1681482937477621e-09 -4.6045050929104054e-11 0.0 0.0 0.0 0.0 -9.0154256921236657e-06 -1.0155068154275629e-06 0.0 9.3514862688747867e-06 -3.430677843849584e-06 0.0 0.0 0.0 0.0 -0.088474595586593333 -0.036579422828460176 0.0 0.053933633797342853 0.071037564115087035 0.0 0.0048429883601605588 0.0039188439231282873 0.0 0.0 0.0 0.0 0.0 0.0 0.0 0.0 0.0 0.0 -0.00027108072894036991 -0.00088173702670120782 0.0 0.0 0.0 0.0 0.0 0.0 0.0 0.0 0.0 0.0 -0.038097774656654176 -0.056011360252705422 0.0 0.0 0.0 0.0 0.0 0.0 0.0 0.0 0.0 0.0 -1.6717650078775499e-09 7.3269440949331975e-08 0.0 4.1170029970495401e-12 4.2389176459945029e-09 0.0 2.1526732944296948e-07 4.1704313277869806e-06 0.0 0.0 0.0 0.0 0.038854460407382788 0.096363013244221599 0.0 0.0 0.0 0.0 0.0 0.0 0.0 0.0 0.0 0.0 0.00027108072894036991 0.00088173702670120782 0.0 0.0 0.0 0.0 -0.0051149706202726674 0.00024119375718262989 0.0 0.0045676337691027743 0.01849200072627661 0.0 0.0 0.0 0.0 -5.5132790619409053e-07 2.757533314901663e-07 0.0 0.0 0.0 0.0 0.042888938654029068 -0.058346895629047643 0.0 0.0 0.0 0.0 -0.0050504174056193113 0.035189070448870624 0.0 0.0 0.0 0.0 0.0 0.0 0.0 </DataArray>
<DataArray Name="radii" format="ascii" type="Float32">1 1 1 1 1 1 1 1 1 1 1 1 1 1 1 1 1 1 1 1 1 1 1 1 1 1 1 1 1 1 1 1 1 1 1 1 1 1 1 1 1 1 1 1 1 1 1 1 1 1 1 1 1 1 1 1 1 1 1 1 1 1 1 1 1 1 1 1 </DataArray>
</PointData>
<CellData/>
</Piece>
</UnstructuredGrid>
</VTKFile>
