<?xml version="1.0" ?>
<VTKFile byte_order="LittleEndian" type="UnstructuredGrid" version="0.1">
<UnstructuredGrid>
<Piece NumberOfCells="0" NumberOfPoints="73">
<Points>
<DataArray NumberOfComponents="3" format="ascii" type="Float32">1.0001254065050158 3.0686484856808689 2.0 2.9485918067787282 1 2.0 7.9891716455794901 1.0 2.0 9.2328703223364439 2.5696866095052671 2.0 12.627780168589569 1.0215437954155588 2.0 16.230096900573653 1.0 2.0 19.0 1.0 2.0 22.0 1.0 2.0 25.482926785227992 1.267275016118403 2.0 28.0 1.0 2.0 30.720045093369041 1.0 2.0 34.893478822784118 3.2941242474052239 2.0 36.798369989652713 1.0 2.0 38.565380800795076 4.4906879694540702 2.0 42.995439140512254 1.177761476840133 2.0 46.525895310402731 2.376336081820039 2.0 48.303858119131895 1.4599351236965565 2.0 54.483993916594308 2.9162319035700124 2.0 55.261501583433464 1 2.0 57.292088349418869 1.0 2.0 60.81744504845102 1.0 2.0 63.98295882351276 1.0 2.0 66.951042194753086 2.7501504441537103 2.0 69.934060938385286 2.4389394341222741 2.0 73.324365876062046 1.0 2.0 75.282632858353196 2.1185227320090938 2.0 79.085587932199431 1.0 2.0 82.0 1.0 2.0 84.994574689423331 1.0 2.0 88.721142125268543 1.9965204668654104 2.0 91.0 1.0 2.0 93.065532059262338 1.4649579728390569 2.0 96.930600470033099 1.0 2.0 99.56751553704359 1.0 2.0 0.76800640067490611 1.0694551596917574 2.0 7.878821054378129 5.84236193181889 2.0 11.232979772767361 2.458674174329929 2.0 13.83701150163308 3.0822746137199628 2.0 23.482848898120814 3.3617950789846476 2.0 33.114734080673188 1.4660299487533182 2.0 39.281641871928315 1.0 2.0 43.464574156199703 3.1219740488644976 2.0 44.995674710239363 1.0880526356514348 2.0 47.686727029991808 4.4145943166203585 2.0 51.349237152999535 1 2.0 63.17515388028918 2.8451818065716115 2.0 65.982990440556136 1.0 2.0 71.323141492754303 1.0 2.0 77.259618583927363 1.8159877077507898 2.0 86.721183385884814 2.0093673318812408 2.0 95.156061883920643 3.6861655595613332 2.0 97.430218346801112 2.9494243289845321 2.0 6.117238913353944 4.6231944092426573 2.0 15.839800034668823 3.1231307155643973 2.0 25.347055895622965 4.094510973938398 2.0 32.882601575057009 3.4554326761790533 2.0 39.869663482257145 2.9117271269644092 2.0 40.962208092471421 5.2150901515303589 2.0 49.966651361337874 4.5791116949223181 2.0 52.495131532960521 2.6311994402797727 2.0 61.6392680365893 4.3942141331527917 2.0 95.052963495537867 1.6888246464992664 2.0 100.48498909440396 6.4679482418304106 2.0 6.0907648535555854 2.6233035875942541 2.0 42.909788309081684 5.6756985403048867 2.0 51.965807125128933 4.5562183910090939 2.0 58.72520639969617 5.6422436053127951 2.0 99.625092746729976 4.1063966417240421 2.0 5.0076260346677071 1.0 2.0 59.508718679449473 2.778805064354561 2.0 101.98524292529447 2.124229837360339 2.0 57.498920742207808 3.4805023967437982 2.0 102.86448822996691 4.0546390763499192 2.0 </DataArray>
</Points>
<Cells>
<DataArray Name="connectivity" format="ascii" type="Int32">0</DataArray>
<DataArray Name="offsets" format="ascii" type="Int32">0</DataArray>
<DataArray Name="types" format="ascii" type="UInt8">1</DataArray>
</Cells>
<PointData>
<DataArray Name="Points" NumberOfComponents="3" format="ascii" type="Float32">1.0001254065050158 3.0686484856808689 2.0 2.9485918067787282 1 2.0 7.9891716455794901 1.0 2.0 9.2328703223364439 2.5696866095052671 2.0 12.627780168589569 1.0215437954155588 2.0 16.230096900573653 1.0 2.0 19.0 1.0 2.0 22.0 1.0 2.0 25.482926785227992 1.267275016118403 2.0 28.0 1.0 2.0 30.720045093369041 1.0 2.0 34.893478822784118 3.2941242474052239 2.0 36.798369989652713 1.0 2.0 38.565380800795076 4.4906879694540702 2.0 42.995439140512254 1.177761476840133 2.0 46.525895310402731 2.376336081820039 2.0 48.303858119131895 1.4599351236965565 2.0 54.483993916594308 2.9162319035700124 2.0 55.261501583433464 1 2.0 57.292088349418869 1.0 2.0 60.81744504845102 1.0 2.0 63.98295882351276 1.0 2.0 66.951042194753086 2.7501504441537103 2.0 69.934060938385286 2.4389394341222741 2.0 73.324365876062046 1.0 2.0 75.282632858353196 2.1185227320090938 2.0 79.085587932199431 1.0 2.0 82.0 1.0 2.0 84.994574689423331 1.0 2.0 88.721142125268543 1.9965204668654104 2.0 91.0 1.0 2.0 93.065532059262338 1.4649579728390569 2.0 96.930600470033099 1.0 2.0 99.56751553704359 1.0 2.0 0.76800640067490611 1.0694551596917574 2.0 7.878821054378129 5.84236193181889 2.0 11.232979772767361 2.458674174329929 2.0 13.83701150163308 3.0822746137199628 2.0 23.482848898120814 3.3617950789846476 2.0 33.114734080673188 1.4660299487533182 2.0 39.281641871928315 1.0 2.0 43.464574156199703 3.1219740488644976 2.0 44.995674710239363 1.0880526356514348 2.0 47.686727029991808 4.4145943166203585 2.0 51.349237152999535 1 2.0 63.17515388028918 2.8451818065716115 2.0 65.982990440556136 1.0 2.0 71.323141492754303 1.0 2.0 77.259618583927363 1.8159877077507898 2.0 86.721183385884814 2.0093673318812408 2.0 95.156061883920643 3.6861655595613332 2.0 97.430218346801112 2.9494243289845321 2.0 6.117238913353944 4.6231944092426573 2.0 15.839800034668823 3.1231307155643973 2.0 25.347055895622965 4.094510973938398 2.0 32.882601575057009 3.4554326761790533 2.0 39.869663482257145 2.9117271269644092 2.0 40.962208092471421 5.2150901515303589 2.0 49.966651361337874 4.5791116949223181 2.0 52.495131532960521 2.6311994402797727 2.0 61.6392680365893 4.3942141331527917 2.0 95.052963495537867 1.6888246464992664 2.0 100.48498909440396 6.4679482418304106 2.0 6.0907648535555854 2.6233035875942541 2.0 42.909788309081684 5.6756985403048867 2.0 51.965807125128933 4.5562183910090939 2.0 58.72520639969617 5.6422436053127951 2.0 99.625092746729976 4.1063966417240421 2.0 5.0076260346677071 1.0 2.0 59.508718679449473 2.778805064354561 2.0 101.98524292529447 2.124229837360339 2.0 57.498920742207808 3.4805023967437982 2.0 102.86448822996691 4.0546390763499192 2.0 </DataArray>
<DataArray Name="forces" NumberOfComponents="3" format="ascii" type="Float32">1.6686024963101555e-05 0.0010198333133803292 0.0 0.0036575941943354853 -0.0010425680006065478 0.0 0.0 0.0 0.0 0.0 0.0 0.0 0.0 0.0 0.0 0.0 0.0 0.0 0.0 0.0 0.0 0.0 0.0 0.0 0.0 0.0 0.0 0.0 0.0 0.0 0.0 0.0 0.0 0.0 0.0 0.0 0.0 0.0 0.0 0.0 0.0 0.0 0.0 0.0 0.0 0.0 0.0 0.0 0.0 0.0 0.0 -0.0033438053852345231 0.027407557975021153 0.0 -0.00012986868309738595 -0.026656863064033469 0.0 0.011369250994746949 0.0 0.0 0.0 0.0 0.0 0.0 0.0 0.0 0.0 0.0 0.0 0.0 0.0 0.0 0.0 0.0 0.0 0.0 0.0 0.0 0.0 0.0 0.0 0.0 0.0 0.0 0.0 0.0 0.0 0.0 0.0 0.0 0.0 0.0 0.0 0.0 0.0 0.0 0.0 0.0 0.0 0.0 0.0 0.0 -0.063583780233363391 0.00088805641466571119 0.0 0.0 0.0 0.0 0.0 0.0 0.0 0.0 0.0 0.0 0.0 0.0 0.0 0.0 0.0 0.0 0.0 0.0 0.0 0.0 0.0 0.0 0.0 0.0 0.0 0.0 0.0 0.0 -0.0024753957502181706 -0.0034890491784672537 0.0 0.0 0.0 0.0 0.0 0.0 0.0 0.0 0.0 0.0 0.0 0.0 0.0 0.0 0.0 0.0 0.0 0.0 0.0 0.0 0.0 0.0 1.3881879559310268e-07 1.0486583368529718e-05 0.0 0.0 0.0 0.0 0.0 0.0 0.0 0.0 0.0 0.0 0.0 0.0 0.0 0.0 0.0 0.0 -0.00019216069425116828 2.8200537140184098e-06 0.0 -0.0049161599967583909 0.00096445797190750104 0.0 0.0 0.0 0.0 0.0 0.0 0.0 0.0 0.0 0.0 -1.3881879559310268e-07 -1.0486583368529718e-05 0.0 0.0 0.0 0.0 -0.0003118604851873101 0.0017710762418580495 0.0 0.0 0.0 0.0 0.0 0.0 0.0 0.027327134719186574 0.0 0.0 0.019305932124318689 -0.0067404393346698699 0.0 -0.0079786525487254342 -0.017517369172059649 0.0 -0.019305932124318689 0.0067404393346698699 0.0 0.0079786525487254342 0.017517369172059649 0.0 </DataArray>
<DataArray Name="radii" format="ascii" type="Float32">1 1 1 1 1 1 1 1 1 1 1 1 1 1 1 1 1 1 1 1 1 1 1 1 1 1 1 1 1 1 1 1 1 1 1 1 1 1 1 1 1 1 1 1 1 1 1 1 1 1 1 1 1 1 1 1 1 1 1 1 1 1 1 1 1 1 1 1 1 1 1 1 1 </DataArray>
</PointData>
<CellData/>
</Piece>
</UnstructuredGrid>
</VTKFile>
