<?xml version="1.0" ?>
<VTKFile byte_order="LittleEndian" type="UnstructuredGrid" version="0.1">
<UnstructuredGrid>
<Piece NumberOfCells="0" NumberOfPoints="52">
<Points>
<DataArray NumberOfComponents="3" format="ascii" type="Float32">0.99299264953082533 2.8164573320862929 0.99905053471557659 2.7211667027336688 1.3234195978280905 1.3254206181414963 4.7067180796767776 1.331338098619697 1.3285127974643522 8.856064186556118 1.1660144192798203 1.1022946130147446 1.2985401036052313 1.3521198408600019 2.9733501057096241 5.2589876890641216 1 3.1311982697782272 6.8868232041170074 1.1443166979257637 3.321803422735 8.6167833700763676 3.3362602800779908 6.4670362049877665 0.93775227018542029 1 4.796284541778804 4.2850921362165773 2.2508698263066282 7.1484601887319998 6.8136855059875048 1.1595432173028162 7.1294854079054604 1.1524656471224353 1.1336284443156659 6.5083110535242845 1.3160787949036523 1.3495434443409646 8.6784699620671564 8.8441863688243298 1.12003791289221 5.938006405537962 3.4429763209312036 1.1482710132601954 8.865248297458491 7.5338169416078014 3.3092472579596897 0.98529130221191152 2.5999834516128435 2.6565041158930591 3.9867376536793762 8.814420054796523 3.1645097671481826 8.8242514734393183 4.3086907496898705 3.2909317740391777 8.8314130321736819 8.8671765982821871 1.1260294996145219 8.9000000000000004 2.8986557185570776 1 7.1978884667694221 8.8113665920840027 3.1968872168653419 2.6226439298432909 7.4015330630677534 3.2139020713036359 4.509518875087478 6.5505883517920402 4.2062494752491366 7.0863836505756659 7.0913504037417558 1.1254890304140899 8.879234503122639 3.2364004101847681 3.7191284852160589 1.3944149131874883 3.4001351838543554 1 3.2132107686669271 4.1758616005844118 3.9558369632641921 6.675137900448898 5.5916470265687099 2.2481544282515302 4.4208863024882117 4.324871906783855 1 4.4425978102084507 6.7864099696843718 1.3189484437919183 1.3209070825839442 8.6978392738693167 1.3491760375636663 4.3442666976993625 6.1986013865550111 3.3104555645379934 2.7525133821954757 6.8004311603639209 1.1169404941740699 5.3114687614264877 0.97082358615770858 3.1531842181787941 7.1022668754894323 8.8585773392038902 1.1386285545542605 7.3926567855593532 5.282369351041309 1.1522590222833926 8.8690397929117353 8.8672551796764818 1.1085371605144556 2.6918808340873381 5.3087673626263889 4.189294414720111 4.8009950320072434 6.528026499739239 3.1196546235216358 8.8152555795051022 0.93462064435780134 1 0.95165522907135458 4.26454452576598 2.6025722380627605 3.2044689294990079 2.2580385089562771 2.613986968623712 5.7797275928653384 4.8637156258845442 1 7.2512154670060838 5.5284530998018857 3.3643731762033453 0.96262432748522975 3.4626278720898007 4.2477013612772572 3.6999813085932498 2.6953612410760668 2.8766011050195472 7.629120828726438 5.8223874717141983 2.7266388549023137 6.2631335799228269 2.5482329723823711 1 4.8129844882785369 4.0267860179231771 2.6037078304678873 5.2841030299707308 5.2154917895435027 1 5.7635728258092529 3.5205035515185532 1 5.9696421179798422 </DataArray>
</Points>
<Cells>
<DataArray Name="connectivity" format="ascii" type="Int32">0</DataArray>
<DataArray Name="offsets" format="ascii" type="Int32">0</DataArray>
<DataArray Name="types" format="ascii" type="UInt8">1</DataArray>
</Cells>
<PointData>
<DataArray Name="Points" NumberOfComponents="3" format="ascii" type="Float32">0.99299264953082533 2.8164573320862929 0.99905053471557659 2.7211667027336688 1.3234195978280905 1.3254206181414963 4.7067180796767776 1.331338098619697 1.3285127974643522 8.856064186556118 1.1660144192798203 1.1022946130147446 1.2985401036052313 1.3521198408600019 2.9733501057096241 5.2589876890641216 1 3.1311982697782272 6.8868232041170074 1.1443166979257637 3.321803422735 8.6167833700763676 3.3362602800779908 6.4670362049877665 0.93775227018542029 1 4.796284541778804 4.2850921362165773 2.2508698263066282 7.1484601887319998 6.8136855059875048 1.1595432173028162 7.1294854079054604 1.1524656471224353 1.1336284443156659 6.5083110535242845 1.3160787949036523 1.3495434443409646 8.6784699620671564 8.8441863688243298 1.12003791289221 5.938006405537962 3.4429763209312036 1.1482710132601954 8.865248297458491 7.5338169416078014 3.3092472579596897 0.98529130221191152 2.5999834516128435 2.6565041158930591 3.9867376536793762 8.814420054796523 3.1645097671481826 8.8242514734393183 4.3086907496898705 3.2909317740391777 8.8314130321736819 8.8671765982821871 1.1260294996145219 8.9000000000000004 2.8986557185570776 1 7.1978884667694221 8.8113665920840027 3.1968872168653419 2.6226439298432909 7.4015330630677534 3.2139020713036359 4.509518875087478 6.5505883517920402 4.2062494752491366 7.0863836505756659 7.0913504037417558 1.1254890304140899 8.879234503122639 3.2364004101847681 3.7191284852160589 1.3944149131874883 3.4001351838543554 1 3.2132107686669271 4.1758616005844118 3.9558369632641921 6.675137900448898 5.5916470265687099 2.2481544282515302 4.4208863024882117 4.324871906783855 1 4.4425978102084507 6.7864099696843718 1.3189484437919183 1.3209070825839442 8.6978392738693167 1.3491760375636663 4.3442666976993625 6.1986013865550111 3.3104555645379934 2.7525133821954757 6.8004311603639209 1.1169404941740699 5.3114687614264877 0.97082358615770858 3.1531842181787941 7.1022668754894323 8.8585773392038902 1.1386285545542605 7.3926567855593532 5.282369351041309 1.1522590222833926 8.8690397929117353 8.8672551796764818 1.1085371605144556 2.6918808340873381 5.3087673626263889 4.189294414720111 4.8009950320072434 6.528026499739239 3.1196546235216358 8.8152555795051022 0.93462064435780134 1 0.95165522907135458 4.26454452576598 2.6025722380627605 3.2044689294990079 2.2580385089562771 2.613986968623712 5.7797275928653384 4.8637156258845442 1 7.2512154670060838 5.5284530998018857 3.3643731762033453 0.96262432748522975 3.4626278720898007 4.2477013612772572 3.6999813085932498 2.6953612410760668 2.8766011050195472 7.629120828726438 5.8223874717141983 2.7266388549023137 6.2631335799228269 2.5482329723823711 1 4.8129844882785369 4.0267860179231771 2.6037078304678873 5.2841030299707308 5.2154917895435027 1 5.7635728258092529 3.5205035515185532 1 5.9696421179798422 </DataArray>
<DataArray Name="forces" NumberOfComponents="3" format="ascii" type="Float32">-0.067109185610180505 0.24595940391404386 -0.0090930005974562134 -0.0025216358076668999 -0.26164501851895133 -0.71424450680063756 -0.006888120637436837 -0.18580977355497585 -0.68463079802007054 0.5369250358219142 0.021122645754083506 -0.93572156539792928 -0.9716783895851282 0.013216349577097879 -0.0056265808934863049 -0.0022074849777394545 -0.38134569704840005 -0.0067785584975400574 0.00049881697226455968 -0.18667578192165662 0.0047413286829502965 0.16073383264816299 0.48299117439722694 0.00094654473034108677 -0.5961446444437698 -0.13975719455132987 -0.0086962592621864926 -0.0242553526574939 0.25567342087365363 -0.0016895443445247155 -0.022471907435589092 -0.040851861801391935 0.00046271604620298779 -0.45523507410584008 -0.28903686668886841 -0.006967469563903636 -0.80371086821124449 -0.01145772273626422 0.75150447695659028 0.42317153108243111 -0.41919297916672987 0.0026654320236885187 0.0015289675548046172 -0.14880542237464725 0.62488099091835314 0.0052088289521809855 0.23868994027133081 -0.14086475826877651 -0.0092403202378226953 0.24459096077775211 0.0073136449659207403 0.1381004329818723 0.34138043721853617 0.2322556349249173 -0.0095690539044021583 0.3510086006627352 0.30084166847308658 0.64334827016448859 -0.36181173254349897 0.95769700552860959 -0.016446986443241884 -0.30669188511833945 0.0039165927351965113 0.10885751201913811 0.35485305806825534 0.0084438362991740776 -0.0045791281900810221 0.34925982059368843 0.0030802917409978817 -0.015413032658474268 0.24439779544058166 -0.041320787263229172 0.017889756573176277 -0.36698778989184105 0.75882646375098617 0.0033962502473853791 0.48034200669481164 -0.053488209159596879 -0.0042279525518416211 -0.3375802866119485 0.0029350853856029702 -0.010029351290045688 0.25681726135048816 -0.021647025923426461 0.00047125722031551853 0.24111868948870208 -0.0042590801449202409 0.0021961083165431827 -0.29888834900100864 -0.004112378740859679 -0.0026458864316256606 -0.30446512683594318 -0.75747050167878183 0.93700379607738171 -0.014976366440560551 0.00088643798712884081 -0.0063584941992949201 0.35029121699002047 0.00059352787483196723 -0.00065445612393744135 -0.44885686547904002 0.0085330072007721858 -0.27942164168825984 0.2456388772016154 0.013435028873963001 0.56099342347398584 -0.24115096066071839 -0.010324335404402141 0.012015672308788722 -0.11061237937927572 0.66119202933883336 0.64410084182455096 -0.52933534030174345 -0.0017492046126011962 -0.0040472050790275604 0.35238413068066277 0.0016746705016532602 -0.00845146769229458 0.37154278890464815 0.14610222809639059 -0.62613613121923639 -0.3814139671862814 -0.462996423513303 -0.0081564036598247708 0.24148378852767877 0.0030407246595134212 0.00091955986851371962 0.25585881087397488 0.0077792624592159659 -0.040590910262109911 -0.66435375608759095 -0.0046302260493494424 0.00066373095435950935 0.24200146049399981 -0.35794569647013447 -0.0049223879843956972 0.24375060554982531 0.0041384733410419899 -0.012564698955481849 0.24608453817076781 0.014319090697422085 -0.029751073514019316 0.23672787111698451 -0.003303700827677343 -0.0052971464323702255 -0.25313946311468838 -0.0055065534794468407 0.0018712521678068764 0.23694457350878606 -0.0033723352280437685 -0.014510834037044396 -0.25238094870542399 -0.0013932637102094039 -0.026164620165366803 -0.2427167010531554 -0.0089121693646710548 </DataArray>
<DataArray Name="radii" format="ascii" type="Float32">1 1.4 1.4 1.2 1.4 1 1.2 1.4 1 1 1.2 1.2 1.4 1.2 1.2 1 1 1.2 1.2 1.2 1 1.2 1.2 1 1.2 1.4 1 1 1 1 1.4 1.4 1.2 1.2 1 1.2 1.2 1.2 1.2 1.2 1 1 1 1 1 1 1 1 1 1 1 1 </DataArray>
</PointData>
<CellData/>
</Piece>
</UnstructuredGrid>
</VTKFile>
