<?xml version="1.0" ?>
<VTKFile byte_order="LittleEndian" type="UnstructuredGrid" version="0.1">
<UnstructuredGrid>
<Piece NumberOfCells="0" NumberOfPoints="18">
<Points>
<DataArray NumberOfComponents="3" format="ascii" type="Float32">0.94044499890059152 1 0.98455292049482779 2.9199640746667126 1 0.90223051293227752 6.0324405565766916 1 0.99195182859946007 8.8406984240407951 1.1474898969483835 1.1322549195388645 1.1992007568338949 1.1433446332940822 3.1609873074592389 4.5150171533455667 1.1772111751429699 2.5922786689850783 7.6853057683943193 1.6395204073884542 3.0293446387460778 9.0 1 4.3837606742517963 0.99302306393592699 1 5.8001599606586574 5.5868334969754692 1.372195199103095 6.8298671525268357 7.9105995632537107 1 6.0484577711430445 1.0 1 7.7826576387563655 3.3354592940246888 1 7.3688214359986768 9.0 1 7.7261327707581415 6.2411835512018543 1 9.0 3.4184858469845767 1.3460734764369395 4.9222600030569961 1.3813574242409308 2.6891690425001129 4.7850076782115236 6.0224593704485327 1.1441860348465567 4.1846240866533027 </DataArray>
</Points>
<Cells>
<DataArray Name="connectivity" format="ascii" type="Int32">0</DataArray>
<DataArray Name="offsets" format="ascii" type="Int32">0</DataArray>
<DataArray Name="types" format="ascii" type="UInt8">1</DataArray>
</Cells>
<PointData>
<DataArray Name="Points" NumberOfComponents="3" format="ascii" type="Float32">0.94044499890059152 1 0.98455292049482779 2.9199640746667126 1 0.90223051293227752 6.0324405565766916 1 0.99195182859946007 8.8406984240407951 1.1474898969483835 1.1322549195388645 1.1992007568338949 1.1433446332940822 3.1609873074592389 4.5150171533455667 1.1772111751429699 2.5922786689850783 7.6853057683943193 1.6395204073884542 3.0293446387460778 9.0 1 4.3837606742517963 0.99302306393592699 1 5.8001599606586574 5.5868334969754692 1.372195199103095 6.8298671525268357 7.9105995632537107 1 6.0484577711430445 1.0 1 7.7826576387563655 3.3354592940246888 1 7.3688214359986768 9.0 1 7.7261327707581415 6.2411835512018543 1 9.0 3.4184858469845767 1.3460734764369395 4.9222600030569961 1.3813574242409308 2.6891690425001129 4.7850076782115236 6.0224593704485327 1.1441860348465567 4.1846240866533027 </DataArray>
<DataArray Name="forces" NumberOfComponents="3" format="ascii" type="Float32">-0.042923015698895256 -0.00084129863018410887 -0.011133157986108692 -0.027489650698954038 -0.0078138727389967973 -0.070465303514577013 0.0062050553679616075 -0.00064322099861168663 -0.0058005504322995848 0.0293325339900074 -0.011761544421267268 -0.048825843312512732 -0.001143481854419214 -0.01474915610164719 -0.0089190140281707325 0.063085154598445561 0.009659442347048585 0.072072898843958802 -0.024859452262089694 0.022718541952389308 0.022544693487681199 0.014878771690763692 -0.0061429039572288499 0.0095198270533443739 -0.0050284800718670142 -0.021976581820342189 0.012761232580337675 -0.024874762253828484 0.015463508494286182 0.056518496736159711 -0.0036159022137262505 0.0 0.0020044538021245957 0.0 0.0 0.00052566078926030713 0.0 0.0 0.0 0.0011581810661425909 0.0 0.0017921636455270537 0.0094844094313376679 -0.0062533476739024575 0.03515243357490417 0.0054330782691939111 -0.003363174259191339 0.00037833739369340494 0.001493597073045797 0.040840666243196079 0.0034229529416278299 -0.0085628868284795649 -0.014142733611860719 -0.077027994153052212 </DataArray>
<DataArray Name="radii" format="ascii" type="Float32">1 1 1 1.2 1.2 1.2 1 1 1 1.4 1 1 1 1 1 1.4 1 1.2 </DataArray>
</PointData>
<CellData/>
</Piece>
</UnstructuredGrid>
</VTKFile>
