<?xml version="1.0" ?>
<VTKFile byte_order="LittleEndian" type="UnstructuredGrid" version="0.1">
<UnstructuredGrid>
<Piece NumberOfCells="0" NumberOfPoints="34">
<Points>
<DataArray NumberOfComponents="3" format="ascii" type="Float32">1.962466757854658 2.0897822955629524 2.0 4.1795645911259047 0.98123337892732898 2.0 7.0 1.0 2.0 9.9988163608880622 0.99957865658871725 2.0 12.767502865781534 2.0004213434112827 2.0 16.232497134218466 2.0004213434112827 2.0 19.00118363911194 0.99957865658871725 2.0 22.0 2.0 2.0 25.0 1.0 2.0 27.997767702222514 0.99920050464014287 2.0 30.739434941282738 2.0007994953598573 2.0 34.0 2.0 2.0 37.260565058717255 2.0007994953598569 2.0 40.001048658665546 0.99877916122886012 2.0 42.76750286578153 2.0004213434112827 2.0 46.23249713421847 2.0004213434112827 2.0 49.001183639111936 0.99957865658871714 2.0 52.0 2.0 2.0 55.0 1.0 2.0 58.0 2.0 2.0 61.0 1.0 2.0 64.0 2.0 2.0 67.0 1.0 2.0 70.0 2.0 2.0 73.0 1.0 2.0 76.0 1.0 2.0 79.0 1.0 2.0 81.997726078766703 0.99918539935789619 2.0 84.73765956230848 2.0008146006421037 2.0 87.970719759222419 2.0 2.0 90.996641787438392 2.0 2.0 93.975946497142047 2.0 2.0 96.821306315121959 2.0 2.0 99.499999999999972 2.0 2.0 </DataArray>
</Points>
<Cells>
<DataArray Name="connectivity" format="ascii" type="Int32">0</DataArray>
<DataArray Name="offsets" format="ascii" type="Int32">0</DataArray>
<DataArray Name="types" format="ascii" type="UInt8">1</DataArray>
</Cells>
<PointData>
<DataArray Name="Points" NumberOfComponents="3" format="ascii" type="Float32">1.962466757854658 2.0897822955629524 2.0 4.1795645911259047 0.98123337892732898 2.0 7.0 1.0 2.0 9.9988163608880622 0.99957865658871725 2.0 12.767502865781534 2.0004213434112827 2.0 16.232497134218466 2.0004213434112827 2.0 19.00118363911194 0.99957865658871725 2.0 22.0 2.0 2.0 25.0 1.0 2.0 27.997767702222514 0.99920050464014287 2.0 30.739434941282738 2.0007994953598573 2.0 34.0 2.0 2.0 37.260565058717255 2.0007994953598569 2.0 40.001048658665546 0.99877916122886012 2.0 42.76750286578153 2.0004213434112827 2.0 46.23249713421847 2.0004213434112827 2.0 49.001183639111936 0.99957865658871714 2.0 52.0 2.0 2.0 55.0 1.0 2.0 58.0 2.0 2.0 61.0 1.0 2.0 64.0 2.0 2.0 67.0 1.0 2.0 70.0 2.0 2.0 73.0 1.0 2.0 76.0 1.0 2.0 79.0 1.0 2.0 81.997726078766703 0.99918539935789619 2.0 84.73765956230848 2.0008146006421037 2.0 87.970719759222419 2.0 2.0 90.996641787438392 2.0 2.0 93.975946497142047 2.0 2.0 96.821306315121959 2.0 2.0 99.499999999999972 2.0 2.0 </DataArray>
<DataArray Name="forces" NumberOfComponents="3" format="ascii" type="Float32">-0.54125022401918488 0.27062511200959244 0.0 0.54125022401918488 -0.27062511200959244 0.0 0.0 0.0 0.0 -0.017068734217350105 -0.00607600630030097 0.0 -0.60133696641683976 0.00607600630030097 0.0 0.60133696641684142 0.0060760063003003706 0.0 0.017068734217348433 -0.0060760063003003706 0.0 0.0 0.0 0.0 0.0 0.0 0.0 -0.0321909753349389 -0.011529167689519747 0.0 -0.75994252483100688 0.011529167689519747 0.0 -7.1054273576010019e-15 0.0 0.0 0.75994252483102021 0.011529167689517476 0.0 0.015122241117581283 -0.017605173989818895 0.0 -0.60133696641683321 0.0060760063003014193 0.0 0.60133696641683321 0.0060760063003014193 0.0 0.017068734217351358 -0.0060760063003014193 0.0 0.0 0.0 0.0 0.0 0.0 0.0 0.0 0.0 0.0 0.0 0.0 0.0 0.0 0.0 0.0 0.0 0.0 0.0 0.0 0.0 0.0 0.0 0.0 0.0 0.0 0.0 0.0 0.0 0.0 0.0 -0.032791208714539596 -0.011746994259582914 0.0 -0.77576363035699358 0.011746994259582914 0.0 -0.17565166927248299 0.0 0.0 -0.029592539585379996 0.0 0.0 -0.12904018952585261 0.0 0.0 -0.29921637267102597 0.0 0.0 1.4420556101262747 0.0 0.0 </DataArray>
<DataArray Name="radii" format="ascii" type="Float32">2 1 1 1 2 2 1 2 1 1 2 2 2 1 2 2 1 2 1 2 1 2 1 2 1 1 1 1 2 2 2 2 2 2 </DataArray>
</PointData>
<CellData/>
</Piece>
</UnstructuredGrid>
</VTKFile>
