<?xml version="1.0" ?>
<VTKFile byte_order="LittleEndian" type="UnstructuredGrid" version="0.1">
<UnstructuredGrid>
<Piece NumberOfCells="0" NumberOfPoints="75">
<Points>
<DataArray NumberOfComponents="3" format="ascii" type="Float32">0.9834247672519667 1 2.0 3.9950784889690043 2.4481418074682177 2.0 6.9339074073450382 1 2.0 10.785931355776709 3.9889925343618424 2.0 13.00820023289377 1 2.0 16.0 1.0 2.0 18.854884341598495 1 2.0 20.832609553676001 1.9888514345550123 2.0 24.143955168255079 2.3484522920148079 2.0 28.070282868156301 1 2.0 30.668494122311657 3.8391483884873048 2.0 33.667596293062736 1 2.0 36.330012129895401 1.9098392119594427 2.0 39.805051408045081 2.7617920468366846 2.0 43.441323987016681 1 2.0 45.543874336644109 1.9265482287826734 2.0 49.0 1.0 2.0 53.092276651148921 2.6952452415182382 2.0 54.884784176683539 1 2.0 57.061995308612104 1.9509767364373598 2.0 61.566339795374908 1 2.0 63.996646707304897 1.9683509304403422 2.0 67.398908619394533 1 2.0 70.0 1.0 2.0 73.0 1.0 2.0 76.0 1.0 2.0 78.664296674776949 1 2.0 82.399820761043131 1.9161849996185047 2.0 84.656616796532717 1 2.0 86.05639659590129 1.9820813154401054 2.0 90.949709325024727 1.9016011444058243 2.0 93.691887365810757 5.2812326876536542 2.0 97.186595928411094 3.787534682370838 2.0 101.99388060066299 2.7409926041548158 2.0 6.0275495969561632 2.2777288729642016 2.0 8.5469466831555376 1 2.0 21.861442209809034 3.9799273230263181 2.0 26.252525740334832 3.7623809860788202 2.0 32.14508310721218 1 2.0 36.589321196156305 4.1653921769625324 2.0 42.935050594551981 3.1962425730163995 2.0 47.662518830942545 2.7403525388943528 2.0 51.263691341670494 1 2.0 59.474110404456127 3.050411845604359 2.0 62.234845614493373 2.5522608526881974 2.0 83.7818575170309 4.6125478270031737 2.0 88.523834751211822 5.0187646881058585 2.0 90.660407261658079 4.2641073014632278 2.0 92.260121814852013 2.5266516811154633 2.0 95.56479416280942 1.9377799699534126 2.0 100.26463621828981 1 2.0 2.3728729755399121 1.329938415022951 2.0 10.526316798769543 1.9282232688785919 2.0 22.813566651637508 1.1513131450275582 2.0 26.372890066726292 1.9546875022310239 2.0 30.02721371895397 1.9349645753792308 2.0 34.172436646245288 2.5714511499496107 2.0 38.321472247432489 1.9164725260304887 2.0 45.624395802970035 3.6173583059133003 2.0 50.867787779865012 3.3266824323654403 2.0 55.960789441565659 3.6140507951271417 2.0 66.305932140859369 2.5889757980213655 2.0 79.983784810292875 1.726090523243897 2.0 88.203543269079347 1.9255101062248337 2.0 89.6563913913498 2.7590370504224118 2.0 94.278382375350276 2.8080166431193758 2.0 98.45169684757289 1.9041402241330518 2.0 99.809717886300561 3.3456078545149719 2.0 38.290451942711876 5.6153684880396435 2.0 41.390303045597129 1.9162430315245917 2.0 59.858289570841201 1 2.0 80.989740391947151 3.8073304995778261 2.0 86.725917440109612 3.8462626383878806 2.0 93.435863649757749 1 2.0 96.710019084144889 1 2.0 </DataArray>
</Points>
<Cells>
<DataArray Name="connectivity" format="ascii" type="Int32">0</DataArray>
<DataArray Name="offsets" format="ascii" type="Int32">0</DataArray>
<DataArray Name="types" format="ascii" type="UInt8">1</DataArray>
</Cells>
<PointData>
<DataArray Name="Points" NumberOfComponents="3" format="ascii" type="Float32">0.9834247672519667 1 2.0 3.9950784889690043 2.4481418074682177 2.0 6.9339074073450382 1 2.0 10.785931355776709 3.9889925343618424 2.0 13.00820023289377 1 2.0 16.0 1.0 2.0 18.854884341598495 1 2.0 20.832609553676001 1.9888514345550123 2.0 24.143955168255079 2.3484522920148079 2.0 28.070282868156301 1 2.0 30.668494122311657 3.8391483884873048 2.0 33.667596293062736 1 2.0 36.330012129895401 1.9098392119594427 2.0 39.805051408045081 2.7617920468366846 2.0 43.441323987016681 1 2.0 45.543874336644109 1.9265482287826734 2.0 49.0 1.0 2.0 53.092276651148921 2.6952452415182382 2.0 54.884784176683539 1 2.0 57.061995308612104 1.9509767364373598 2.0 61.566339795374908 1 2.0 63.996646707304897 1.9683509304403422 2.0 67.398908619394533 1 2.0 70.0 1.0 2.0 73.0 1.0 2.0 76.0 1.0 2.0 78.664296674776949 1 2.0 82.399820761043131 1.9161849996185047 2.0 84.656616796532717 1 2.0 86.05639659590129 1.9820813154401054 2.0 90.949709325024727 1.9016011444058243 2.0 93.691887365810757 5.2812326876536542 2.0 97.186595928411094 3.787534682370838 2.0 101.99388060066299 2.7409926041548158 2.0 6.0275495969561632 2.2777288729642016 2.0 8.5469466831555376 1 2.0 21.861442209809034 3.9799273230263181 2.0 26.252525740334832 3.7623809860788202 2.0 32.14508310721218 1 2.0 36.589321196156305 4.1653921769625324 2.0 42.935050594551981 3.1962425730163995 2.0 47.662518830942545 2.7403525388943528 2.0 51.263691341670494 1 2.0 59.474110404456127 3.050411845604359 2.0 62.234845614493373 2.5522608526881974 2.0 83.7818575170309 4.6125478270031737 2.0 88.523834751211822 5.0187646881058585 2.0 90.660407261658079 4.2641073014632278 2.0 92.260121814852013 2.5266516811154633 2.0 95.56479416280942 1.9377799699534126 2.0 100.26463621828981 1 2.0 2.3728729755399121 1.329938415022951 2.0 10.526316798769543 1.9282232688785919 2.0 22.813566651637508 1.1513131450275582 2.0 26.372890066726292 1.9546875022310239 2.0 30.02721371895397 1.9349645753792308 2.0 34.172436646245288 2.5714511499496107 2.0 38.321472247432489 1.9164725260304887 2.0 45.624395802970035 3.6173583059133003 2.0 50.867787779865012 3.3266824323654403 2.0 55.960789441565659 3.6140507951271417 2.0 66.305932140859369 2.5889757980213655 2.0 79.983784810292875 1.726090523243897 2.0 88.203543269079347 1.9255101062248337 2.0 89.6563913913498 2.7590370504224118 2.0 94.278382375350276 2.8080166431193758 2.0 98.45169684757289 1.9041402241330518 2.0 99.809717886300561 3.3456078545149719 2.0 38.290451942711876 5.6153684880396435 2.0 41.390303045597129 1.9162430315245917 2.0 59.858289570841201 1 2.0 80.989740391947151 3.8073304995778261 2.0 86.725917440109612 3.8462626383878806 2.0 93.435863649757749 1 2.0 96.710019084144889 1 2.0 </DataArray>
<DataArray Name="forces" NumberOfComponents="3" format="ascii" type="Float32">-0.36113185269526887 -0.10286159905080032 0.0 -0.059745525638643215 0.37574712927453313 0.0 -0.044100578461945816 -0.20332977672053573 0.0 0.206102317218232 1.5290066446589319 0.0 0.040194406557553471 -0.027554335456180582 0.0 0.0 0.0 0.0 -0.43154077519266387 -0.22721278263288314 0.0 -0.61021419043089031 -0.24289867631092876 0.0 -0.55512707434220077 0.55597188072640447 0.0 0.17950321100260574 -0.59102905779191239 0.0 0.51611145876319509 1.5386843726503407 0.0 -0.098479773167606921 -1.0203585568070126 0.0 -0.50448008294145374 -1.9643725623952517 0.0 -0.092542975406360251 1.0384018135861646 0.0 0.14390228151312551 -0.88032283228858421 0.0 0.53089558054720909 -1.6003258974815622 0.0 0.0 0.0 0.0 0.41622963850587219 0.034260348324209801 0.0 -0.1356369934898293 -0.29982739616128823 0.0 -0.23567009609211348 -1.0680913061474397 0.0 -0.02141442857542003 -0.16292270993739616 0.0 -0.34746050183553689 -0.68955213479682942 0.0 0.46215712952973903 -0.65941053424440554 0.0 0.0 0.0 0.0 0.0 0.0 0.0 0.0 0.0 0.0 -0.25018195353732109 -0.15286518821946646 0.0 0.67178332923383022 -1.8261141084136785 0.0 -0.64334811962390559 -0.65555302408246408 0.0 -0.88086980213834032 -0.39040222549784082 0.0 -0.28514936834364413 -2.1438589468998708 0.0 -0.00085916189334461768 1.4595776437666781 0.0 -0.46799442456107643 2.1787437810676789 0.0 1.5434684616049819 -0.27946222386343711 0.0 0.55679061694882792 0.098964200788493661 0.0 -0.30870689548184099 -0.2546701860098492 0.0 0.22736823386598756 0.43736613509243605 0.0 0.11877462746368325 1.0199675165783315 0.0 0.018688159277183869 -0.26146919191103912 0.0 -0.86695260097515003 1.3857684198495641 0.0 0.98292742427452184 1.6763014989266527 0.0 0.42844000876215504 0.13556337748334726 0.0 -0.1654628541238026 -0.16809219581017487 0.0 0.81511187518367068 0.93898808544830259 0.0 -0.79317514058710314 0.33306838557173057 0.0 1.0101588384097679 0.76235967673752891 0.0 0.041607909999389014 0.94670919546020016 0.0 0.12847318950682002 0.49907063619834335 0.0 -0.18083093997381205 0.16916179924567412 0.0 -0.14882057059827913 -1.3556150352184648 0.0 0.49684066751368805 -0.90608042439432068 0.0 -0.26662848142551415 -0.35701551350707827 0.0 0.20935596848364113 -1.5638310655613468 0.0 -0.18514341478827057 -0.85042535133376285 0.0 0.83632969242761934 -0.98724322718799584 0.0 -0.47001709690640781 -1.4169552694159653 0.0 -1.5530042781267104 0.79315541967604553 0.0 -0.13113027014665923 -1.8198496445936496 0.0 0.073139060986129004 1.1156243669747907 0.0 -0.40839089954778218 0.10476052059365751 0.0 -0.43962111984728497 0.62575190077787024 0.0 0.77789911932692135 0.84843203908216458 0.0 -0.25701532964640855 -0.30583711955398962 0.0 -0.16426192180875915 -1.6229439281503564 0.0 -0.099413679655941944 0.86913664490244369 0.0 0.022001489898494542 0.46394911548815065 0.0 0.37572934126165891 -2.0885389052465495 0.0 0.8358475766808614 1.544372630641285 0.0 0.88312754648127922 1.1439382952805377 0.0 0.53832214495546582 -1.8248497418687715 0.0 0.043896714412739679 -0.66070078341168814 0.0 -1.4070617310431366 1.1163106206347708 0.0 -0.45617515790258051 0.65698235452876352 0.0 -0.11943901718986411 -1.4847117744141622 0.0 0.29057090906684624 -1.1655278144329415 0.0 </DataArray>
<DataArray Name="radii" format="ascii" type="Float32">1 2 1 2 1 1 1 2 2 1 2 1 2 2 1 2 1 2 1 2 1 2 1 1 1 1 1 2 1 2 2 2 2 2 1 1 1 1 1 2 2 1 1 2 1 2 2 1 2 2 1 1 2 1 2 2 2 2 1 1 1 2 1 2 1 2 2 2 2 2 1 2 1 1 1 </DataArray>
</PointData>
<CellData/>
</Piece>
</UnstructuredGrid>
</VTKFile>
