<?xml version="1.0" ?>
<VTKFile byte_order="LittleEndian" type="UnstructuredGrid" version="0.1">
<UnstructuredGrid>
<Piece NumberOfCells="0" NumberOfPoints="41">
<Points>
<DataArray NumberOfComponents="3" format="ascii" type="Float32">1.7063679605021189 1.6751080838568551 1.7369453441904419 2.2241186833740114 3.9993440810856833 1.7558009454194872 8.2510951637675927 3.3943744764444306 1.7504681113927743 9.0 1 0.9678609751918309 1.7128291296846831 1.669172388005965 5.2199564601780128 3.9781741091757672 1.681746442248556 5.4269422573831214 5.8549569649737219 1.8002024611841529 3.8890182852814723 8.288247834666814 1.6790108837515498 5.8411669279996774 0.95998472774865629 1 7.270501121338965 1.7468339672428048 2.4525782299525174 8.2909523806625387 5.8078676585414515 1 5.3500074894296281 0.97854509014058222 1 9.0 2.7023048416944326 1 9.0 8.2743637003231232 1.6997166558187382 8.251190657102935 6.712092921815219 1.6745340891683305 6.8380830522499094 0.97313437419853765 1 3.5143928759402718 4.6932313502740106 1 3.6555048899350266 6.5150765392560031 1.6710249113087003 1.7149225720340753 1.7190392196982676 3.0576298049839465 3.8389131470772129 4.199818009704873 2.7557059345749737 3.8308580094566316 7.3384751924402485 1.6714709270649903 4.0554996023064929 9.0 1 4.2072558799144799 4.544057302107599 1.684595148167308 8.2960570111932732 9.0 1 9.0 4.4592996121467294 3.892507647851748 8.2490154753368543 3.1538722508803909 1.6667076270048251 1.7340859219947233 4.801271029647098 1.6756436365392273 1.7068957603751795 8.2662363574862479 1.6707824944643783 1.9046774246946581 1.7189722435518535 3.0311243548221278 6.8408098470498935 5.9046977048017295 2.944315295671458 6.0924831618866273 6.2037665288528974 4.7072416037338733 5.173498611332116 8.2755802559923186 3.8581986047922352 7.3152853276834815 2.3566981489063439 1 7.348124443750141 6.9138810495329492 3.3984150300507956 9.0 6.4289159827792659 1.654698447629708 8.2981160278668114 5.5116309614084038 4.2468164727828501 1.7717157861134643 3.348201515783964 4.5670852422722517 5.6156081808801588 2.8317413518056558 1 3.9386047438279199 8.2712656770418054 3.4804962052061326 4.353495045769848 4.0490835010246 1.6603680215548664 6.8254790964529519 6.4132689899944024 4.4597299873668783 7.7960559465880497 </DataArray>
</Points>
<Cells>
<DataArray Name="connectivity" format="ascii" type="Int32">0</DataArray>
<DataArray Name="offsets" format="ascii" type="Int32">0</DataArray>
<DataArray Name="types" format="ascii" type="UInt8">1</DataArray>
</Cells>
<PointData>
<DataArray Name="Points" NumberOfComponents="3" format="ascii" type="Float32">1.7063679605021189 1.6751080838568551 1.7369453441904419 2.2241186833740114 3.9993440810856833 1.7558009454194872 8.2510951637675927 3.3943744764444306 1.7504681113927743 9.0 1 0.9678609751918309 1.7128291296846831 1.669172388005965 5.2199564601780128 3.9781741091757672 1.681746442248556 5.4269422573831214 5.8549569649737219 1.8002024611841529 3.8890182852814723 8.288247834666814 1.6790108837515498 5.8411669279996774 0.95998472774865629 1 7.270501121338965 1.7468339672428048 2.4525782299525174 8.2909523806625387 5.8078676585414515 1 5.3500074894296281 0.97854509014058222 1 9.0 2.7023048416944326 1 9.0 8.2743637003231232 1.6997166558187382 8.251190657102935 6.712092921815219 1.6745340891683305 6.8380830522499094 0.97313437419853765 1 3.5143928759402718 4.6932313502740106 1 3.6555048899350266 6.5150765392560031 1.6710249113087003 1.7149225720340753 1.7190392196982676 3.0576298049839465 3.8389131470772129 4.199818009704873 2.7557059345749737 3.8308580094566316 7.3384751924402485 1.6714709270649903 4.0554996023064929 9.0 1 4.2072558799144799 4.544057302107599 1.684595148167308 8.2960570111932732 9.0 1 9.0 4.4592996121467294 3.892507647851748 8.2490154753368543 3.1538722508803909 1.6667076270048251 1.7340859219947233 4.801271029647098 1.6756436365392273 1.7068957603751795 8.2662363574862479 1.6707824944643783 1.9046774246946581 1.7189722435518535 3.0311243548221278 6.8408098470498935 5.9046977048017295 2.944315295671458 6.0924831618866273 6.2037665288528974 4.7072416037338733 5.173498611332116 8.2755802559923186 3.8581986047922352 7.3152853276834815 2.3566981489063439 1 7.348124443750141 6.9138810495329492 3.3984150300507956 9.0 6.4289159827792659 1.654698447629708 8.2981160278668114 5.5116309614084038 4.2468164727828501 1.7717157861134643 3.348201515783964 4.5670852422722517 5.6156081808801588 2.8317413518056558 1 3.9386047438279199 8.2712656770418054 3.4804962052061326 4.353495045769848 4.0490835010246 1.6603680215548664 6.8254790964529519 6.4132689899944024 4.4597299873668783 7.7960559465880497 </DataArray>
<DataArray Name="forces" NumberOfComponents="3" format="ascii" type="Float32">-3.1115482504083487 -1.4443089781707881 -2.0954109834248684 -0.60084089835434251 3.1904558117758461 -1.4688080243388255 1.6979771911193184 3.0026932737913423 -1.6460269600206874 0.93880657440451931 -0.87963970162285465 -1.0680331962004554 -2.8968328626691489 -1.6415620139781653 -0.10419259770586231 -0.15336239420744252 -1.2237052985964711 0.11463012126369732 0.21398669901392231 -0.032181600260926958 -0.1664954033328892 2.9326221775406767 -1.3146124528237522 0.12046918384171923 -1.3297739858171131 -1.3772573462918896 -0.24723100715768059 -1.7667956085752827 2.457058757015353 3.022498734820374 -0.1632420832418266 -1.6427467437696244 0.3012506983058662 -0.71298230385391959 -0.75322630564481041 0.69064740821812665 0.085753666842896592 -0.97326491086084677 1.0578459701243317 2.4712293235857734 -0.62652524256414777 1.701150593323304 0.45658834476919158 -1.4633837754132755 -0.014484143386588728 -0.89278938498992477 -1.1380638951600717 -0.12064108183553296 -0.4141208640523355 -2.3504365457515144 -0.039370137879812056 -0.06112521673985756 -1.5799995864973724 -2.8272642949596958 -2.6904612529053291 2.5771719558735686 0.084489888199235003 0.3012237125675995 2.9720713383290382 0.095931319715300112 0.63105937271018653 -1.5651777418213311 0.16197357690399639 1.3262691688445873 -1.0286564615353695 -0.31523247559427514 0.11330754572485524 -1.1290380675401441 3.1921340891506502 0.87770234480772436 -0.83222234286486629 0.83335421306715385 -0.22552791013869283 3.0761400075856926 1.6288656889800763 0.12292143156456597 -1.723470117463888 -2.1904343341708268 0.06858969001831039 -1.4265116726675302 -3.0940085836404965 2.2011442168192965 -1.5880555010311661 -1.1416470547685487 -2.6926869815374435 3.000050901525237 0.18951671190365696 -0.2250185772630186 1.0306218987822351 -0.085934685207897349 -0.14165232378683396 2.5890051136735028 -0.16636353024974482 2.5116574898877095 3.1982626814225354 0.39214157492978374 -0.025544654620323293 -2.0653533196782985 0.06749966444782951 -0.24394368607013603 0.91354563705591052 1.3852306300237498 -0.35508791672217449 -2.1225551024099985 3.2605586344501938 -0.070643059071795036 3.0176263940223134 -0.93993142416615805 -0.1773479639752622 3.3231661588219188 0.027687282415934905 0.046998751837650871 -1.8864035536423283 -0.44789938676782604 2.3682768623086257 3.0446133182428539 -0.015447040945751667 0.0096930845014031042 -1.9341457403797411 0.032311138602239692 -0.17975734465963347 0.7629537306654024 -0.0062411891594035124 </DataArray>
<DataArray Name="radii" format="ascii" type="Float32">1.7999999999999998 1.7999999999999998 1.7999999999999998 1 1.7999999999999998 1.7999999999999998 1.7999999999999998 1.7999999999999998 1 1.7999999999999998 1 1 1 1.7999999999999998 1.7999999999999998 1 1 1.7999999999999998 1.7999999999999998 1.7999999999999998 1.7999999999999998 1 1.7999999999999998 1 1.7999999999999998 1.7999999999999998 1.7999999999999998 1.7999999999999998 1.7999999999999998 1 1.7999999999999998 1.7999999999999998 1 1 1.7999999999999998 1.7999999999999998 1.7999999999999998 1 1.7999999999999998 1.7999999999999998 1 </DataArray>
</PointData>
<CellData/>
</Piece>
</UnstructuredGrid>
</VTKFile>
