<?xml version="1.0" ?>
<VTKFile byte_order="LittleEndian" type="UnstructuredGrid" version="0.1">
<UnstructuredGrid>
<Piece NumberOfCells="0" NumberOfPoints="52">
<Points>
<DataArray NumberOfComponents="3" format="ascii" type="Float32">2.893877886333343 3.3005092489801262 1.7942674871084834 3.3753077500781634 1.3005106320114872 1.295968197419382 6.0569146824133879 1 0.92892364197948307 9.0 1 0.94783432441973914 1.3401179665558707 1.3212298898982135 2.9982894929333801 4.0635565203521944 4.3833906364286248 3.5915738599749734 5.3067069968594227 1 4.1816331873526336 9.0 1 4.3227011164429907 1.7631793460491925 2.9413851179561714 5.7254406277989442 4.3080809418083996 1 5.53812699467397 5.3574051848104878 3.2980609335880917 6.1833799730616938 2.3515611687097744 1 9.0 4.0286176102806097 1 8.7703798475310304 8.6852162448194559 1.3496975303946275 8.6701167549328346 6.7162616860640547 1 9.0 0.97368137425900358 1 0.94887697559311834 8.5457308194100534 1 2.5118624432018111 7.7790013134140867 4.2674782683947443 1.3049173685726925 3.5672669157536259 1 3.5035051031401832 6.841043116200046 3.9117350415027654 4.3022704248462098 9.0 3.5055534344282542 5.5771162841779161 0.92494141160061083 1.1566208752942913 5.0153458308953676 4.7852323334350775 1 7.1718560359637342 0.96641130537240849 1 6.7959642709259107 2.4774613953691924 4.0405379175894058 8.3712231168038951 5.1433661619303654 3.9402662409631515 8.6054560373138074 5.3568728181988554 3.3750554048218606 1.3884469165962989 1.3813367510876249 3.9797229290487977 3.5546832607846728 6.7833321811998193 1.3515877077602971 5.7390176250646405 8.6999999999999993 1.31505360111248 6.4237179879167323 1.7330644453482387 4.7572379033418084 0.99388835041971224 5.1326521200636828 1 2.3962216595408199 9.0 2.7825047135054533 0.99711142491915383 4.9073949034542137 2.6366246151227761 3.7421415215806744 7.2484683884532704 1 4.1057880686467207 9.0 2.6157081551917702 3.7737252043244176 3.1797985446523618 4.4836545412438262 6.0221044557131433 2.8380768010305419 1 7.0588399400751234 0.93002447724628312 1 8.6772200733397717 3.5155177905353758 2.6362644484790669 9.0 5.3770668378460478 1.996110334279326 9.0 0.98521834816199705 2.8376214653057241 0.98586988634193484 6.7674680766160442 1 2.6652335698237617 7.3381388711697033 2.1005871377850327 0.96701896932965326 3.1558889645108517 2.3630068968643254 4.5208645317857092 7.4424629248070167 2.8175486204767695 2.7989914391331481 7.7026243166035648 3.5064715318878856 7.1938059660367371 2.4761033664619427 1 5.268263577725949 6.3996061036167777 1 7.5712214401998255 0.98674597800941799 2.7989723540227529 7.551787646988414 3.3240696728092853 2.6094624437420126 7.0182689549454773 7.0499094234781738 3.1201147293010814 9.0 </DataArray>
</Points>
<Cells>
<DataArray Name="connectivity" format="ascii" type="Int32">0</DataArray>
<DataArray Name="offsets" format="ascii" type="Int32">0</DataArray>
<DataArray Name="types" format="ascii" type="UInt8">1</DataArray>
</Cells>
<PointData>
<DataArray Name="Points" NumberOfComponents="3" format="ascii" type="Float32">2.893877886333343 3.3005092489801262 1.7942674871084834 3.3753077500781634 1.3005106320114872 1.295968197419382 6.0569146824133879 1 0.92892364197948307 9.0 1 0.94783432441973914 1.3401179665558707 1.3212298898982135 2.9982894929333801 4.0635565203521944 4.3833906364286248 3.5915738599749734 5.3067069968594227 1 4.1816331873526336 9.0 1 4.3227011164429907 1.7631793460491925 2.9413851179561714 5.7254406277989442 4.3080809418083996 1 5.53812699467397 5.3574051848104878 3.2980609335880917 6.1833799730616938 2.3515611687097744 1 9.0 4.0286176102806097 1 8.7703798475310304 8.6852162448194559 1.3496975303946275 8.6701167549328346 6.7162616860640547 1 9.0 0.97368137425900358 1 0.94887697559311834 8.5457308194100534 1 2.5118624432018111 7.7790013134140867 4.2674782683947443 1.3049173685726925 3.5672669157536259 1 3.5035051031401832 6.841043116200046 3.9117350415027654 4.3022704248462098 9.0 3.5055534344282542 5.5771162841779161 0.92494141160061083 1.1566208752942913 5.0153458308953676 4.7852323334350775 1 7.1718560359637342 0.96641130537240849 1 6.7959642709259107 2.4774613953691924 4.0405379175894058 8.3712231168038951 5.1433661619303654 3.9402662409631515 8.6054560373138074 5.3568728181988554 3.3750554048218606 1.3884469165962989 1.3813367510876249 3.9797229290487977 3.5546832607846728 6.7833321811998193 1.3515877077602971 5.7390176250646405 8.6999999999999993 1.31505360111248 6.4237179879167323 1.7330644453482387 4.7572379033418084 0.99388835041971224 5.1326521200636828 1 2.3962216595408199 9.0 2.7825047135054533 0.99711142491915383 4.9073949034542137 2.6366246151227761 3.7421415215806744 7.2484683884532704 1 4.1057880686467207 9.0 2.6157081551917702 3.7737252043244176 3.1797985446523618 4.4836545412438262 6.0221044557131433 2.8380768010305419 1 7.0588399400751234 0.93002447724628312 1 8.6772200733397717 3.5155177905353758 2.6362644484790669 9.0 5.3770668378460478 1.996110334279326 9.0 0.98521834816199705 2.8376214653057241 0.98586988634193484 6.7674680766160442 1 2.6652335698237617 7.3381388711697033 2.1005871377850327 0.96701896932965326 3.1558889645108517 2.3630068968643254 4.5208645317857092 7.4424629248070167 2.8175486204767695 2.7989914391331481 7.7026243166035648 3.5064715318878856 7.1938059660367371 2.4761033664619427 1 5.268263577725949 6.3996061036167777 1 7.5712214401998255 0.98674597800941799 2.7989723540227529 7.551787646988414 3.3240696728092853 2.6094624437420126 7.0182689549454773 7.0499094234781738 3.1201147293010814 9.0 </DataArray>
<DataArray Name="forces" NumberOfComponents="3" format="ascii" type="Float32">0.052543429200776898 0.3203189759481706 0.081856569260469025 -0.039589764018193918 -0.56526639804049716 -1.1707470548832897 -0.20654782147047726 -0.46532879919274056 -0.79987498784197575 0.34743524689917238 -0.53342918600184264 -0.5870590486429389 -0.67389694839526426 -0.3320972175732585 0.055240708479065759 -0.11044682592607866 0.23837809336479629 -0.021507804795557636 0.12829135892234084 -0.50225123311199038 -0.02711797969395835 0.56715101872222728 -0.55415576766851127 0.050259585134336898 -0.23662318336320684 0.14773965139772041 0.1182803859835643 -0.10163234301718971 -0.15595666863849403 0.0014169021908168669 -0.049287446577195249 0.5590581043438102 0.022217090830386324 0.06583899419047716 -0.15432606585390127 0.42295031161724989 0.12321519253589225 -0.74397926824432403 0.281890961149736 0.95900162427041802 -0.011729739130064226 0.78907586237367888 -0.066892908349254501 -0.50707655361307535 0.8578399371566624 -0.29618302106194405 -0.50504428360962406 -0.57532532145352189 0.25704096703878415 -0.12983545561656681 0.059710290002427779 -0.097245503504338637 0.27430801638698393 -0.030044437310780221 -0.021916707112652485 -0.58583255584282046 0.2216601308142519 0.021776828767397935 0.17941788037357503 0.061833290442683458 0.11521195122181499 0.33928316060397468 -0.029345749894087392 -0.84468998068340573 -0.052388930436778836 -0.021814205701663467 -0.089905732650203449 -0.12047676858035178 0.060868944494758964 -0.37799849985444173 -0.275635550754673 -0.0052178198485915289 -0.15933601378565643 0.35254402673704766 -0.044434209325440732 -0.056541322274670777 0.30727323117226613 0.052843721715542802 0.037095719597736283 0.54780826005542682 -0.13001541869105271 -0.21003138614064343 0.62227641146988755 0.057620043401078971 -0.135966327231547 0.0095418290747652235 -0.081338243116924946 1.1253741892783578 -0.40160357742319885 -0.06553416775368158 -0.053021065414328439 0.25473983979402276 -0.068778926915697577 -0.14299247621130901 -0.20729083777064256 0.039667215836343223 0.53306611767342493 0.38264011736978865 -0.032507278397768957 0.25529927000518027 0.28734220020692469 -0.10509950094909565 0.20353183081747586 -0.20999964860705589 -0.14954702187140101 0.31945091929483665 0.43033063576142866 -0.084096221329535703 -0.075047677131710261 0.20389390578547417 -0.027031599880793514 -0.07766100627539492 -0.49771855006487825 0.19776077220824878 -0.78748647188293441 -0.060635363165649388 0.17460570112466578 -0.096182170110168497 0.37893208748286256 0.41011003090523912 -0.01500911583173084 0.34066440951917071 0.27707075604430453 -0.16634889453387519 0.29754174176938247 -0.15901665202356075 0.0039242173300699651 -0.27339585858381121 -0.1826903917308022 0.080614817000994182 0.12627492112455643 -0.37116000652206166 0.094933925780841977 0.77968059770905018 -0.0021528802991990226 -0.11836708447452049 0.20897331117424536 -0.010447698859212984 -0.0098333788178612824 0.25040766810258291 -0.021758616270798004 0.13203728102944712 -0.60784372289383026 0.036156046596273139 0.041328240469870617 -0.29267379126454734 -0.040993247767480159 -0.14915734252328774 0.22434778398591609 0.21745431883539934 -0.036659270658793 0.28250736297723322 -0.0069634419411026549 -0.035236461431294566 0.28616997296965041 0.29059667412778445 </DataArray>
<DataArray Name="radii" format="ascii" type="Float32">1 1.4 1 1 1.4 1 1 1 1 1 1.4 1 1 1.4 1 1 1 1 1 1 1 1 1 1 1 1 1.4 1.4 1.4 1.4 1 1 1 1 1 1 1 1 1 1 1 1 1 1 1 1 1 1 1 1 1 1 </DataArray>
</PointData>
<CellData/>
</Piece>
</UnstructuredGrid>
</VTKFile>
