<?xml version="1.0" ?>
<VTKFile byte_order="LittleEndian" type="UnstructuredGrid" version="0.1">
<UnstructuredGrid>
<Piece NumberOfCells="0" NumberOfPoints="25">
<Points>
<DataArray NumberOfComponents="3" format="ascii" type="Float32">1.535894412433684 1.5166790255295803 1.5166711669240036 4.283886432107221 1.537091776194661 1.4862200391815452 8.4757825797176789 2.8806232177063067 2.5960793887928748 9.0 1 0.98991342062892484 1.4985898819559176 1.5023586514341838 5.282192784849844 4.4787914877917991 1.5456437596623749 5.7203600903467064 5.5171556199135967 3.5457153990152492 3.4594465762939781 8.5 1.514945625878245 6.5252519443773265 2.2134474569574762 1 7.1592604446853159 2.5004112184797189 3.475174542563817 7.0257305067733835 6.1394823969254722 1 6.6230372007196543 0.93547128032878069 1 8.3696013006039554 2.2827415053047528 1 9.0 8.4323408834614142 3.5154972437825429 8.4316988954716265 6.6367397811372975 1.4908306844038057 8.4922896546216684 0.94996520598793355 2.4695142164891299 3.3153211093689205 5.4812865746620654 1 3.4218750474354982 6.815822778750948 1.4880539432816708 1.5215126571568529 2.5177251704564938 4.1577399686739209 3.8136575294221524 3.2688864778240085 1.4791579622062756 3.6044379334456185 7.0619684889877439 1.5209982489893681 4.6145040143714109 9.0 1 4.0999898977104454 4.1054199749375933 1.4989211268863472 8.4558279618756576 8.9814542171032805 1 9.0 5.2772063706714887 4.0983786362420904 8.4017597079812774 </DataArray>
</Points>
<Cells>
<DataArray Name="connectivity" format="ascii" type="Int32">0</DataArray>
<DataArray Name="offsets" format="ascii" type="Int32">0</DataArray>
<DataArray Name="types" format="ascii" type="UInt8">1</DataArray>
</Cells>
<PointData>
<DataArray Name="Points" NumberOfComponents="3" format="ascii" type="Float32">1.535894412433684 1.5166790255295803 1.5166711669240036 4.283886432107221 1.537091776194661 1.4862200391815452 8.4757825797176789 2.8806232177063067 2.5960793887928748 9.0 1 0.98991342062892484 1.4985898819559176 1.5023586514341838 5.282192784849844 4.4787914877917991 1.5456437596623749 5.7203600903467064 5.5171556199135967 3.5457153990152492 3.4594465762939781 8.5 1.514945625878245 6.5252519443773265 2.2134474569574762 1 7.1592604446853159 2.5004112184797189 3.475174542563817 7.0257305067733835 6.1394823969254722 1 6.6230372007196543 0.93547128032878069 1 8.3696013006039554 2.2827415053047528 1 9.0 8.4323408834614142 3.5154972437825429 8.4316988954716265 6.6367397811372975 1.4908306844038057 8.4922896546216684 0.94996520598793355 2.4695142164891299 3.3153211093689205 5.4812865746620654 1 3.4218750474354982 6.815822778750948 1.4880539432816708 1.5215126571568529 2.5177251704564938 4.1577399686739209 3.8136575294221524 3.2688864778240085 1.4791579622062756 3.6044379334456185 7.0619684889877439 1.5209982489893681 4.6145040143714109 9.0 1 4.0999898977104454 4.1054199749375933 1.4989211268863472 8.4558279618756576 8.9814542171032805 1 9.0 5.2772063706714887 4.0983786362420904 8.4017597079812774 </DataArray>
<DataArray Name="forces" NumberOfComponents="3" format="ascii" type="Float32">-0.70720513205314939 -0.20939784033192804 -0.9192736645363776 0.0025197669672212819 0.015793169963901156 -1.255206843434316 0.83602430507523728 0.80940762165818403 0.00095450980438514799 0.30288861308751153 -0.11447285956272882 -0.1112739305088897 -1.1187442256683193 -0.36737848504107762 0.10916665549506216 -0.063178892236843712 0.11013762303274528 0.12635261552685079 -0.039040799897253425 0.6852859065478738 0.019567180350538421 1.1031879730008887 -0.22852049680949968 -0.034399652818735506 0.11206153008741046 -0.30942382490000392 0.03440765846818114 -0.13507639499425267 0.73931286349274195 0.22998856532658285 -0.020687577318573541 -0.47767632621703537 0.017702366844970396 -0.71187307454435023 0.0 -0.04225702510612997 -0.078055105484431508 -0.16353206493855607 0.58024736144834321 0.35678073670855703 0.75679103117207902 0.3496984024171072 0.070996830629335955 -0.49455363085171727 1.0181283701102926 -0.55197782985688626 0.2419984155026097 0.10860152755913062 -0.04642921605917022 -0.40504617334095844 0.093901626735618748 0.0071393870237490796 -0.52518630495247842 -0.86586292657357156 -0.0093662897508993564 0.71174301718357869 0.050398952325340099 -0.0071619105385619664 -0.62332569825667383 0.069215895496040791 -0.032316319224563128 -0.16174868659651648 0.0047366997106033787 0.51141620613887395 -0.24613377202875386 -0.083430498808646336 0.028178255738703861 -0.40530084242176334 0.61588736098376828 0.10263830074886898 -0.026296764964618788 0.026296764964618781 0.035764226775295505 0.72781607391756253 0.019412886809376514 </DataArray>
<DataArray Name="radii" format="ascii" type="Float32">1.5999999999999999 1.5999999999999999 1.5999999999999999 1 1.5999999999999999 1.5999999999999999 1.5999999999999999 1.5999999999999999 1 1.5999999999999999 1 1 1 1.5999999999999999 1.5999999999999999 1 1 1.5999999999999999 1.5999999999999999 1.5999999999999999 1.5999999999999999 1 1.5999999999999999 1 1.5999999999999999 </DataArray>
</PointData>
<CellData/>
</Piece>
</UnstructuredGrid>
</VTKFile>
