<?xml version="1.0" ?>
<VTKFile byte_order="LittleEndian" type="UnstructuredGrid" version="0.1">
<UnstructuredGrid>
<Piece NumberOfCells="0" NumberOfPoints="41">
<Points>
<DataArray NumberOfComponents="3" format="ascii" type="Float32">1.1520980786831856 1.6241370886404527 1.1668703895445396 3.2264424722477654 2.6596168348170233 1.152068248557282 7.1946768208275298 2.7780570727039104 2.3047525686637562 9.0 1 0.94516471374526656 1.3125369595693648 1.6156399116000979 5.3079274491084192 4.148053705059235 1.9214469894057353 5.5080950618952258 5.7716109910845503 2.7441777558366218 4.1195626557589202 7.9562100022761779 1.1372615772980783 5.8582520507587912 0.95350843060447366 1 7.1612239225355783 2.1731957701079412 2.7363083343344239 8.7992947235215198 5.8972097270674553 1 5.4543069944738267 0.97124060113248745 1 9.0 2.8123410214396487 1 9.0 8.6914332923212321 1.9316010989899743 7.7590430133403654 6.4233178285382015 1.1562186678048336 7.2857058914481119 0.96123459149763757 1 3.6022682546239806 4.9531306806670523 1 3.8155063929514133 6.7498000071861188 1.125338085752595 1.1632553626775257 1.4216492866728754 2.9296254836228619 3.2685863835823579 3.7342421599759925 2.5711134875816684 3.3724288006996925 7.0396556493044882 1.0868940933083442 3.7570570687595457 9.0 1 4.2965805120495686 4.7343018899882789 1.1750253250641383 8.8833760582427441 9.0 1 9.0 4.7420627208314654 3.1537027418200805 7.6606395530020874 2.5714197154203404 1.0811249322697729 2.4988132399650378 4.679490914204373 1.1117527762406154 1.7650474574205892 8.8552434856471169 1.6657165862942385 2.5267154433495249 1.184597672497786 3.1112230777524394 6.8471189498058198 6.2141259833257454 2.8222499902934199 6.1222598362247895 6.5785636956362605 4.624909549362676 4.8165565408229822 8.8259869861098537 3.2051794513940757 6.2194241073517773 2.608145810331985 1.1889392677358552 6.969721718585963 7.0430260208370887 3.0828404229841522 8.822429738197 6.9732550231546258 1.1177994183886897 8.9000000000000004 5.2922653127938268 3.2969574624752505 1.7949181446038907 2.7863221395939171 3.5679625364885501 5.1949103418636415 2.9286973187432173 1 4.451502176846545 8.1606749187081213 2.9696580952527971 4.29026505148701 4.3864567741151088 1.0951417107828205 7.029423179836896 5.9060556484003985 4.8739214420226906 7.7312249428206714 </DataArray>
</Points>
<Cells>
<DataArray Name="connectivity" format="ascii" type="Int32">0</DataArray>
<DataArray Name="offsets" format="ascii" type="Int32">0</DataArray>
<DataArray Name="types" format="ascii" type="UInt8">1</DataArray>
</Cells>
<PointData>
<DataArray Name="Points" NumberOfComponents="3" format="ascii" type="Float32">1.1520980786831856 1.6241370886404527 1.1668703895445396 3.2264424722477654 2.6596168348170233 1.152068248557282 7.1946768208275298 2.7780570727039104 2.3047525686637562 9.0 1 0.94516471374526656 1.3125369595693648 1.6156399116000979 5.3079274491084192 4.148053705059235 1.9214469894057353 5.5080950618952258 5.7716109910845503 2.7441777558366218 4.1195626557589202 7.9562100022761779 1.1372615772980783 5.8582520507587912 0.95350843060447366 1 7.1612239225355783 2.1731957701079412 2.7363083343344239 8.7992947235215198 5.8972097270674553 1 5.4543069944738267 0.97124060113248745 1 9.0 2.8123410214396487 1 9.0 8.6914332923212321 1.9316010989899743 7.7590430133403654 6.4233178285382015 1.1562186678048336 7.2857058914481119 0.96123459149763757 1 3.6022682546239806 4.9531306806670523 1 3.8155063929514133 6.7498000071861188 1.125338085752595 1.1632553626775257 1.4216492866728754 2.9296254836228619 3.2685863835823579 3.7342421599759925 2.5711134875816684 3.3724288006996925 7.0396556493044882 1.0868940933083442 3.7570570687595457 9.0 1 4.2965805120495686 4.7343018899882789 1.1750253250641383 8.8833760582427441 9.0 1 9.0 4.7420627208314654 3.1537027418200805 7.6606395530020874 2.5714197154203404 1.0811249322697729 2.4988132399650378 4.679490914204373 1.1117527762406154 1.7650474574205892 8.8552434856471169 1.6657165862942385 2.5267154433495249 1.184597672497786 3.1112230777524394 6.8471189498058198 6.2141259833257454 2.8222499902934199 6.1222598362247895 6.5785636956362605 4.624909549362676 4.8165565408229822 8.8259869861098537 3.2051794513940757 6.2194241073517773 2.608145810331985 1.1889392677358552 6.969721718585963 7.0430260208370887 3.0828404229841522 8.822429738197 6.9732550231546258 1.1177994183886897 8.9000000000000004 5.2922653127938268 3.2969574624752505 1.7949181446038907 2.7863221395939171 3.5679625364885501 5.1949103418636415 2.9286973187432173 1 4.451502176846545 8.1606749187081213 2.9696580952527971 4.29026505148701 4.3864567741151088 1.0951417107828205 7.029423179836896 5.9060556484003985 4.8739214420226906 7.7312249428206714 </DataArray>
<DataArray Name="forces" NumberOfComponents="3" format="ascii" type="Float32">-0.41176537237305366 0.071181396251216195 -0.28478244735829522 -0.13492677043554974 0.35064335767468108 -0.41202179241974413 0.074398464474448284 0.5189895100297367 -0.11599885347574269 0.04434849607309712 -0.21588035502864755 -0.47136464348743329 -0.13461886044164589 0.11492763745802045 0.025148345767146738 -0.012885980900864416 0.36891782080291297 -0.05380118260855804 0.046153426276008463 0.28926382722174482 -0.050895691095164577 0.037464714569735061 -0.22820063188086515 -0.055460959264119189 -0.39964197381028288 -0.1689997290872069 0.10450204428315057 0.01149521386293155 0.35492297676807444 0.11473758001444873 0.0028470533600058034 -0.17869573008561063 -0.10774801663695292 -0.24721606687934022 -0.081173265540941578 0.15910343521316708 0.039634452845397183 -0.35070877281239932 0.055838874281190685 0.069847393483177422 0.26396457863614581 -0.060458712285038879 0.051142390131844184 -0.065245301133331907 -0.081768449303115331 -0.33322782110549248 -0.32038241622647101 -0.14231433529224985 -0.11721215511349717 -0.41496205867495517 -0.056667225761402373 0.15004577446998807 -0.33069507889356958 -0.31585725277558901 -0.067647219668612119 0.26926252841579879 -0.0026179567360602382 -0.018957286220693793 0.41096213594989467 -0.029384572645833232 -0.05064229610481763 -0.66116000449890544 -0.1345685588752083 0.36834058887634546 -0.20355221201095411 0.071227889785878309 0.12585992579413252 -0.044508299941540416 0.7167013916260192 0.28442080044675183 -0.37580459284798695 0.49051783277637928 -0.072039016740191558 0.22191702450084777 0.022262222743763702 0.10820649183028572 -0.71075176779407878 -0.018439855347268053 0.053951129274716986 -0.44747452899132245 -0.10308571954818851 0.47487352935644728 0.043395557785681368 0.044317521995967391 -0.13239855406665454 0.25552033068318947 0.051192791403197602 0.05741415151195426 0.17716865609463631 0.017991785714144136 0.05336392362690838 0.24626942709911973 0.086913646496880478 0.2233843803801881 0.48417491956327419 0.065681720756516737 -0.025608695221563171 0.062018166209131906 -0.014452059150024558 0.008934551191807933 0.2335011610575046 -0.00910010441412871 0.05491191728610377 -0.39549753543314381 0.8596009534768223 -0.097877924272708833 0.3729297541058974 -0.09281706669748041 -0.16091294616310206 0.24773820565137861 0.021936249179661409 -0.011702476028946557 -0.38684448660327414 -0.053366917156247001 0.07410810519440976 0.27704531712006952 -0.052452281796173561 -0.0046704841589653712 -0.59026340604918592 -0.081549803937481291 0.071540940971677222 0.10740786096698636 0.0045300865598686671 </DataArray>
<DataArray Name="radii" format="ascii" type="Float32">1.2 1.2 1.2 1 1.2 1.2 1.2 1.2 1 1.2 1 1 1 1.2 1.2 1 1 1.2 1.2 1.2 1.2 1 1.2 1 1.2 1.2 1.2 1.2 1.2 1 1.2 1.2 1 1 1.2 1.2 1.2 1 1.2 1.2 1 </DataArray>
</PointData>
<CellData/>
</Piece>
</UnstructuredGrid>
</VTKFile>
