<?xml version="1.0" ?>
<VTKFile byte_order="LittleEndian" type="UnstructuredGrid" version="0.1">
<UnstructuredGrid>
<Piece NumberOfCells="0" NumberOfPoints="34">
<Points>
<DataArray NumberOfComponents="3" format="ascii" type="Float32">1.9620181550462872 2.1856838888774428 2.0 4.3713677777548856 0.98100907752314359 2.0 7.0 1.0 2.0 9.9538867476309125 0.99490526767392318 2.0 12.630836638537009 2.0171343554799392 2.0 16.369163361462995 2.0171343554799388 2.0 19.046113252369089 0.99490526767392318 2.0 22.0 2.0 2.0 25.0 1.0 2.0 27.931425200177426 0.99188071959961865 2.0 30.515273488714822 2.0268461434741192 2.0 33.999553150324516 1.9993321358130791 2.0 37.479257814406971 2.0293834133041315 2.0 40.020042256222446 0.98396176581950479 2.0 42.638487813056614 2.0204899831211356 2.0 46.369816228517088 2.0171201708375954 2.0 49.046144048580111 0.9948960079326058 2.0 52.0 2.0 2.0 55.0 1.0 2.0 58.0 2.0 2.0 61.0 1.0 2.0 64.0 2.0 2.0 67.0 1.0 2.0 70.0 2.0 2.0 73.0 1.0 2.0 76.0 1.0 2.0 79.0 1.0 2.0 81.928127750920751 0.99123857110433444 2.0 84.488405521106401 2.0283689747884788 2.0 87.858286071055488 1.9995961431301126 2.0 90.957103168048533 2.0 2.0 93.926014840277475 2.0 2.0 96.842062648591352 2.0 2.0 99.999999999999943 2.0 2.0 </DataArray>
</Points>
<Cells>
<DataArray Name="connectivity" format="ascii" type="Int32">0</DataArray>
<DataArray Name="offsets" format="ascii" type="Int32">0</DataArray>
<DataArray Name="types" format="ascii" type="UInt8">1</DataArray>
</Cells>
<PointData>
<DataArray Name="Points" NumberOfComponents="3" format="ascii" type="Float32">1.9620181550462872 2.1856838888774428 2.0 4.3713677777548856 0.98100907752314359 2.0 7.0 1.0 2.0 9.9538867476309125 0.99490526767392318 2.0 12.630836638537009 2.0171343554799392 2.0 16.369163361462995 2.0171343554799388 2.0 19.046113252369089 0.99490526767392318 2.0 22.0 2.0 2.0 25.0 1.0 2.0 27.931425200177426 0.99188071959961865 2.0 30.515273488714822 2.0268461434741192 2.0 33.999553150324516 1.9993321358130791 2.0 37.479257814406971 2.0293834133041315 2.0 40.020042256222446 0.98396176581950479 2.0 42.638487813056614 2.0204899831211356 2.0 46.369816228517088 2.0171201708375954 2.0 49.046144048580111 0.9948960079326058 2.0 52.0 2.0 2.0 55.0 1.0 2.0 58.0 2.0 2.0 61.0 1.0 2.0 64.0 2.0 2.0 67.0 1.0 2.0 70.0 2.0 2.0 73.0 1.0 2.0 76.0 1.0 2.0 79.0 1.0 2.0 81.928127750920751 0.99123857110433444 2.0 84.488405521106401 2.0283689747884788 2.0 87.858286071055488 1.9995961431301126 2.0 90.957103168048533 2.0 2.0 93.926014840277475 2.0 2.0 96.842062648591352 2.0 2.0 99.999999999999943 2.0 2.0 </DataArray>
<DataArray Name="forces" NumberOfComponents="3" format="ascii" type="Float32">-0.34989564019857478 0.17494782009928739 0.0 0.34989564019857478 -0.17494782009928739 0.0 0.0 0.0 0.0 -0.12440067149427211 -0.046933597645017928 0.0 -0.17533948179465955 0.046933597645017963 0.0 0.17533948179465955 0.046933597645017873 0.0 0.12440067149427211 -0.046933597645017908 0.0 0.0 0.0 0.0 0.0 0.0 0.0 -0.1911453872497543 -0.074796282726794755 0.0 -0.36372054773590179 0.077760614583380919 0.0 -0.0025783679144170124 -0.0061524859451451645 0.0 0.34024728876268312 0.089312169511541889 0.0 0.056715456749978299 -0.14774712031703202 0.0 -0.14316434401195727 0.061767128187001606 0.0 0.17902954723518269 0.046874876767477341 0.0 0.12461635416418623 -0.047018900060429795 0.0 0.0 0.0 0.0 0.0 0.0 0.0 0.0 0.0 0.0 0.0 0.0 0.0 0.0 0.0 0.0 0.0 0.0 0.0 0.0 0.0 0.0 0.0 0.0 0.0 0.0 0.0 0.0 0.0 0.0 0.0 -0.20481038606570506 -0.080711871059426482 0.0 -0.44434799914549611 0.084432273746817138 0.0 -0.26835273127932913 -0.0037204026873906555 0.0 -0.11793426906150728 0.0 0.0 -0.077796263034812796 0.0 0.0 0.1920235228613052 0.0 0.0 0.92121812572554518 0.0 0.0 </DataArray>
<DataArray Name="radii" format="ascii" type="Float32">2 1 1 1 2 2 1 2 1 1 2 2 2 1 2 2 1 2 1 2 1 2 1 2 1 1 1 1 2 2 2 2 2 2 </DataArray>
</PointData>
<CellData/>
</Piece>
</UnstructuredGrid>
</VTKFile>
