<?xml version="1.0" ?>
<VTKFile byte_order="LittleEndian" type="UnstructuredGrid" version="0.1">
<UnstructuredGrid>
<Piece NumberOfCells="0" NumberOfPoints="34">
<Points>
<DataArray NumberOfComponents="3" format="ascii" type="Float32">1.9614911218988105 2.1666929664005865 2.0 4.333385932801173 0.98074556094940524 2.0 7.0 1.0 2.0 9.9673906798724001 0.99569227516067982 2.0 12.649870076644467 2.0120396231538624 2.0 16.350129923355535 2.012039623153862 2.0 19.032609320127602 0.99569227516067993 2.0 22.0 2.0 2.0 25.0 1.0 2.0 27.952174399733092 0.99343349027131744 2.0 30.554756053981265 2.0184050791472381 2.0 33.999833037122485 1.9995852278573651 2.0 37.442323316565357 2.0196884054642457 2.0 40.013885684269923 0.98744278959312282 2.0 42.654028578051786 2.0137850425145496 2.0 46.350382226706259 2.0120318127757564 2.0 49.032616703569822 0.9956897812982054 2.0 52.0 2.0 2.0 55.0 1.0 2.0 58.0 2.0 2.0 61.0 1.0 2.0 64.0 2.0 2.0 67.0 1.0 2.0 70.0 2.0 2.0 73.0 1.0 2.0 76.0 1.0 2.0 79.0 1.0 2.0 81.950360312389776 0.99305759283261841 2.0 84.5366403513531 2.0192036890229259 2.0 87.887416276354912 1.999759362628166 2.0 90.969905159864382 2.0 2.0 93.934459774312344 2.0 2.0 96.821218125725494 2.0 2.0 99.899999999999949 2.0 2.0 </DataArray>
</Points>
<Cells>
<DataArray Name="connectivity" format="ascii" type="Int32">0</DataArray>
<DataArray Name="offsets" format="ascii" type="Int32">0</DataArray>
<DataArray Name="types" format="ascii" type="UInt8">1</DataArray>
</Cells>
<PointData>
<DataArray Name="Points" NumberOfComponents="3" format="ascii" type="Float32">1.9614911218988105 2.1666929664005865 2.0 4.333385932801173 0.98074556094940524 2.0 7.0 1.0 2.0 9.9673906798724001 0.99569227516067982 2.0 12.649870076644467 2.0120396231538624 2.0 16.350129923355535 2.012039623153862 2.0 19.032609320127602 0.99569227516067993 2.0 22.0 2.0 2.0 25.0 1.0 2.0 27.952174399733092 0.99343349027131744 2.0 30.554756053981265 2.0184050791472381 2.0 33.999833037122485 1.9995852278573651 2.0 37.442323316565357 2.0196884054642457 2.0 40.013885684269923 0.98744278959312282 2.0 42.654028578051786 2.0137850425145496 2.0 46.350382226706259 2.0120318127757564 2.0 49.032616703569822 0.9956897812982054 2.0 52.0 2.0 2.0 55.0 1.0 2.0 58.0 2.0 2.0 61.0 1.0 2.0 64.0 2.0 2.0 67.0 1.0 2.0 70.0 2.0 2.0 73.0 1.0 2.0 76.0 1.0 2.0 79.0 1.0 2.0 81.950360312389776 0.99305759283261841 2.0 84.5366403513531 2.0192036890229259 2.0 87.887416276354912 1.999759362628166 2.0 90.969905159864382 2.0 2.0 93.934459774312344 2.0 2.0 96.821218125725494 2.0 2.0 99.899999999999949 2.0 2.0 </DataArray>
<DataArray Name="forces" NumberOfComponents="3" format="ascii" type="Float32">-0.38840451829976419 0.19420225914988209 0.0 0.38840451829976419 -0.19420225914988209 0.0 0.0 0.0 0.0 -0.11613707400734961 -0.04344815724798784 0.0 -0.2290150842841997 0.043448157247987881 0.0 0.22901508428420092 0.043448157247987299 0.0 0.11613707400734839 -0.04344815724798734 0.0 0.0 0.0 0.0 0.0 0.0 0.0 -0.17202881802677006 -0.066230494728457545 0.0 -0.42487412628870558 0.068271499265483801 0.0 -0.0012243991513412045 -0.0041834346313847056 0.0 0.40870794342101585 0.075679486031110757 0.0 0.049033350283293836 -0.12665331995535975 0.0 -0.20663152874515975 0.05319059129301814 0.0 0.23081606937117705 0.043398983327838522 0.0 0.11620150913648984 -0.043473310602249224 0.0 0.0 0.0 0.0 0.0 0.0 0.0 0.0 0.0 0.0 0.0 0.0 0.0 0.0 0.0 0.0 0.0 0.0 0.0 0.0 0.0 0.0 0.0 0.0 0.0 0.0 0.0 0.0 0.0 0.0 0.0 -0.18107038678440721 -0.07002183508442375 0.0 -0.49089018101218806 0.072448928448361566 0.0 -0.26130439955901663 -0.0024270933639378104 0.0 -0.10240943407748659 0.0 0.0 -0.10009955626878764 0.0 0.0 0.12716363859792068 0.0 0.0 1.0086103191039655 0.0 0.0 </DataArray>
<DataArray Name="radii" format="ascii" type="Float32">2 1 1 1 2 2 1 2 1 1 2 2 2 1 2 2 1 2 1 2 1 2 1 2 1 1 1 1 2 2 2 2 2 2 </DataArray>
</PointData>
<CellData/>
</Piece>
</UnstructuredGrid>
</VTKFile>
