<?xml version="1.0" ?>
<VTKFile byte_order="LittleEndian" type="UnstructuredGrid" version="0.1">
<UnstructuredGrid>
<Piece NumberOfCells="0" NumberOfPoints="18">
<Points>
<DataArray NumberOfComponents="3" format="ascii" type="Float32">0.90202275397317455 1 0.98806508244919622 3.0242546395728285 1 1.0 5.7310830491627289 1 1.0 8.4961648868069801 1.157553904458728 1.1593654187101388 1.1985691837586963 1.1597211523138056 3.1782035081264595 4.2355038489260988 1 2.4908046713314298 7.4438484158935907 1.4840437175422931 3.1167705105994976 9.0 1 4.2768080137103937 0.99233980827299129 1 5.7212683073095407 5.6117972184205014 1.1686181351966385 6.0307510358525702 7.8023447057725592 1 5.9551014730701342 1.0 1 7.723150624669084 3.7177478328715643 1 7.2065851800851632 9.0 1 7.5620305026212336 6.0447098257159908 1 8.2229781983991295 3.5898656679431573 1.1607852497392124 4.6120689887120987 1.8566546178711103 2.5306171555564152 4.7863708756491423 5.7317197605659809 1 3.9043355472478583 </DataArray>
</Points>
<Cells>
<DataArray Name="connectivity" format="ascii" type="Int32">0</DataArray>
<DataArray Name="offsets" format="ascii" type="Int32">0</DataArray>
<DataArray Name="types" format="ascii" type="UInt8">1</DataArray>
</Cells>
<PointData>
<DataArray Name="Points" NumberOfComponents="3" format="ascii" type="Float32">0.90202275397317455 1 0.98806508244919622 3.0242546395728285 1 1.0 5.7310830491627289 1 1.0 8.4961648868069801 1.157553904458728 1.1593654187101388 1.1985691837586963 1.1597211523138056 3.1782035081264595 4.2355038489260988 1 2.4908046713314298 7.4438484158935907 1.4840437175422931 3.1167705105994976 9.0 1 4.2768080137103937 0.99233980827299129 1 5.7212683073095407 5.6117972184205014 1.1686181351966385 6.0307510358525702 7.8023447057725592 1 5.9551014730701342 1.0 1 7.723150624669084 3.7177478328715643 1 7.2065851800851632 9.0 1 7.5620305026212336 6.0447098257159908 1 8.2229781983991295 3.5898656679431573 1.1607852497392124 4.6120689887120987 1.8566546178711103 2.5306171555564152 4.7863708756491423 5.7317197605659809 1 3.9043355472478583 </DataArray>
<DataArray Name="forces" NumberOfComponents="3" format="ascii" type="Float32">-0.074213218139635592 -0.00092771131972431561 -0.0090401463155420705 0.075745360427171615 0.0 0.0 0.0 0.0 0.0 0.01618155437728443 -0.004737833037351721 -0.030778810056077448 -0.0010837769190259279 -0.0030962433381731321 0.0042941201103066052 -0.02540582138474997 -0.0003649847792111973 -0.029996308115331945 -0.024805018113180612 0.012808294242776345 0.013703522883465113 0.017409204559780175 -0.0056255431510256462 0.013263357023939101 -0.0058022398330351077 -0.010460411216609731 9.4921377996754104e-05 0.010562472553028984 0.0036428084135725156 -0.030596287228401353 0.0 0.0 0.0 0.0 0.0 0.0062696847825760571 -0.015031108647735804 -0.0016160219897950552 0.0090776488356449254 0.0 0.0 0.0 0.0044686360947068212 -0.0020267864237774606 0.021518638392756428 0.002689150646622643 -0.0022902389080025403 0.0011133893042976396 0.0045589660262373684 0.016818590768641194 -0.0012806560532886049 0.018231597828605665 -0.0024449180543989796 0.028898143346658123 </DataArray>
<DataArray Name="radii" format="ascii" type="Float32">1 1 1 1.2 1.2 1 1 1 1 1.2 1 1 1 1 1 1.2 1 1 </DataArray>
</PointData>
<CellData/>
</Piece>
</UnstructuredGrid>
</VTKFile>
