<?xml version="1.0" ?>
<VTKFile byte_order="LittleEndian" type="UnstructuredGrid" version="0.1">
<UnstructuredGrid>
<Piece NumberOfCells="0" NumberOfPoints="34">
<Points>
<DataArray NumberOfComponents="3" format="ascii" type="Float32">1.9631965866614283 2.0710156744902815 2.0 4.1420313489805629 0.98159829333071413 2.0 7.0 1.0 2.0 10.0 1.0 2.0 12.809202850317094 2.0 2.0 16.190797149682904 2.0 2.0 19.0 1.0 2.0 22.0 2.0 2.0 25.0 1.0 2.0 28.0 1.0 2.0 30.792133500165946 2.0 2.0 34.0 2.0 2.0 37.207866499834047 2.0 2.0 40.0 1.0 2.0 42.809202850317092 2.0 2.0 46.190797149682908 2.0 2.0 49.0 1.0 2.0 52.0 2.0 2.0 55.0 1.0 2.0 58.0 2.0 2.0 61.0 1.0 2.0 64.0 2.0 2.0 67.0 1.0 2.0 70.0 2.0 2.0 73.0 1.0 2.0 76.0 1.0 2.0 79.0 1.0 2.0 82.0 1.0 2.0 84.791455242926446 2.0 2.0 87.982900403854913 2.0 2.0 90.998693895510897 2.0 2.0 93.984894847581501 2.0 2.0 96.842055610126252 2.0 2.0 99.399999999999977 2.0 2.0 </DataArray>
</Points>
<Cells>
<DataArray Name="connectivity" format="ascii" type="Int32">0</DataArray>
<DataArray Name="offsets" format="ascii" type="Int32">0</DataArray>
<DataArray Name="types" format="ascii" type="UInt8">1</DataArray>
</Cells>
<PointData>
<DataArray Name="Points" NumberOfComponents="3" format="ascii" type="Float32">1.9631965866614283 2.0710156744902815 2.0 4.1420313489805629 0.98159829333071413 2.0 7.0 1.0 2.0 10.0 1.0 2.0 12.809202850317094 2.0 2.0 16.190797149682904 2.0 2.0 19.0 1.0 2.0 22.0 2.0 2.0 25.0 1.0 2.0 28.0 1.0 2.0 30.792133500165946 2.0 2.0 34.0 2.0 2.0 37.207866499834047 2.0 2.0 40.0 1.0 2.0 42.809202850317092 2.0 2.0 46.190797149682908 2.0 2.0 49.0 1.0 2.0 52.0 2.0 2.0 55.0 1.0 2.0 58.0 2.0 2.0 61.0 1.0 2.0 64.0 2.0 2.0 67.0 1.0 2.0 70.0 2.0 2.0 73.0 1.0 2.0 76.0 1.0 2.0 79.0 1.0 2.0 82.0 1.0 2.0 84.791455242926446 2.0 2.0 87.982900403854913 2.0 2.0 90.998693895510897 2.0 2.0 93.984894847581501 2.0 2.0 96.842055610126252 2.0 2.0 99.399999999999977 2.0 2.0 </DataArray>
<DataArray Name="forces" NumberOfComponents="3" format="ascii" type="Float32">-0.57805363735775595 0.28902681867887797 0.0 0.57805363735775595 -0.28902681867887797 0.0 0.0 0.0 0.0 0.0 0.0 0.0 -0.70864094498298869 0.0 0.0 0.70864094498298869 0.0 0.0 0.0 0.0 0.0 0.0 0.0 0.0 0.0 0.0 0.0 0.0 0.0 0.0 -0.84599623376345434 0.0 0.0 -3.5527136788005009e-15 0.0 0.0 0.84599623376345789 0.0 0.0 0.0 0.0 0.0 -0.70864094498298869 0.0 0.0 0.70864094498298869 0.0 0.0 0.0 0.0 0.0 0.0 0.0 0.0 0.0 0.0 0.0 0.0 0.0 0.0 0.0 0.0 0.0 0.0 0.0 0.0 0.0 0.0 0.0 0.0 0.0 0.0 0.0 0.0 0.0 0.0 0.0 0.0 0.0 0.0 0.0 0.0 0.0 0.0 -0.85416211936401965 0.0 0.0 -0.1378303481628933 0.0 0.0 -0.015540005563750015 0.0 0.0 -0.11396610387109263 0.0 0.0 -0.44915366673089352 0.0 0.0 1.5706522436926491 0.0 0.0 </DataArray>
<DataArray Name="radii" format="ascii" type="Float32">2 1 1 1 2 2 1 2 1 1 2 2 2 1 2 2 1 2 1 2 1 2 1 2 1 1 1 1 2 2 2 2 2 2 </DataArray>
</PointData>
<CellData/>
</Piece>
</UnstructuredGrid>
</VTKFile>
