<?xml version="1.0" ?>
<VTKFile byte_order="LittleEndian" type="UnstructuredGrid" version="0.1">
<UnstructuredGrid>
<Piece NumberOfCells="0" NumberOfPoints="34">
<Points>
<DataArray NumberOfComponents="3" format="ascii" type="Float32">1.0 1.0 2.0 4.0 2.0 2.0 7.0 1.0 2.0 10.0 2.0 2.0 13.0 1.0 2.0 16.0 1.0 2.0 19.0 1.0 2.0 21.726497529400046 1.9901354278009988 2.0 25.285055836511109 1.9901026801625683 2.0 28.0 1.0 2.0 31.0 2.0 2.0 34.0 1.0 2.0 36.726497529400049 1.9901354278009988 2.0 40.285055836511113 1.9901026801625683 2.0 43.0 1.0 2.0 46.0 2.0 2.0 49.0 1.0 2.0 52.0 2.0 2.0 55.0 1.0 2.0 58.0 2.0 2.0 61.0 1.0 2.0 64.0 2.0 2.0 67.0 1.0 2.0 70.0 1.0 2.0 73.0 1.0 2.0 76.0 1.0 2.0 79.0 1.0 2.0 82.0 2.0 2.0 85.0 1.0 2.0 87.523431082876627 1.9904387326719861 2.0 90.808253617960077 1.9808224861126258 2.0 93.862378662238953 1.9809742733189548 2.0 96.840678566630203 1.9804832713868608 2.0 99.999999999999943 1.9901026801625683 2.0 </DataArray>
</Points>
<Cells>
<DataArray Name="connectivity" format="ascii" type="Int32">0</DataArray>
<DataArray Name="offsets" format="ascii" type="Int32">0</DataArray>
<DataArray Name="types" format="ascii" type="UInt8">1</DataArray>
</Cells>
<PointData>
<DataArray Name="Points" NumberOfComponents="3" format="ascii" type="Float32">1.0 1.0 2.0 4.0 2.0 2.0 7.0 1.0 2.0 10.0 2.0 2.0 13.0 1.0 2.0 16.0 1.0 2.0 19.0 1.0 2.0 21.726497529400046 1.9901354278009988 2.0 25.285055836511109 1.9901026801625683 2.0 28.0 1.0 2.0 31.0 2.0 2.0 34.0 1.0 2.0 36.726497529400049 1.9901354278009988 2.0 40.285055836511113 1.9901026801625683 2.0 43.0 1.0 2.0 46.0 2.0 2.0 49.0 1.0 2.0 52.0 2.0 2.0 55.0 1.0 2.0 58.0 2.0 2.0 61.0 1.0 2.0 64.0 2.0 2.0 67.0 1.0 2.0 70.0 1.0 2.0 73.0 1.0 2.0 76.0 1.0 2.0 79.0 1.0 2.0 82.0 2.0 2.0 85.0 1.0 2.0 87.523431082876627 1.9904387326719861 2.0 90.808253617960077 1.9808224861126258 2.0 93.862378662238953 1.9809742733189548 2.0 96.840678566630203 1.9804832713868608 2.0 99.999999999999943 1.9901026801625683 2.0 </DataArray>
<DataArray Name="forces" NumberOfComponents="3" format="ascii" type="Float32">0.0 0.0 0.0 0.0 0.0 0.0 0.0 0.0 0.0 0.0 0.0 0.0 0.0 0.0 0.0 0.0 0.0 0.0 0.0 0.0 0.0 -0.068349158073427299 -0.050099167144594919 0.0 0.068359815901546828 -0.050265482457436693 0.0 0.0 0.0 0.0 0.0 0.0 0.0 0.0 0.0 0.0 -0.068349158073423746 -0.050099167144594926 0.0 0.068359815901543275 -0.050265482457436693 0.0 0.0 0.0 0.0 0.0 0.0 0.0 0.0 0.0 0.0 0.0 0.0 0.0 0.0 0.0 0.0 0.0 0.0 0.0 0.0 0.0 0.0 0.0 0.0 0.0 0.0 0.0 0.0 0.0 0.0 0.0 0.0 0.0 0.0 0.0 0.0 0.0 0.0 0.0 0.0 0.0 0.0 0.0 0.0 0.0 0.0 -0.33376753167613932 -0.04855877379343719 0.0 -0.23911519992916275 -0.09739677041024003 0.0 -0.10143831206587728 -0.096625889274506771 0.0 0.16662658575245604 -0.099119539010964014 0.0 0.50786963827653731 -0.050265482457436693 0.0 </DataArray>
<DataArray Name="radii" format="ascii" type="Float32">1 2 1 2 1 1 1 2 2 1 2 1 2 2 1 2 1 2 1 2 1 2 1 1 1 1 1 2 1 2 2 2 2 2 </DataArray>
</PointData>
<CellData/>
</Piece>
</UnstructuredGrid>
</VTKFile>
