<?xml version="1.0" ?>
<VTKFile byte_order="LittleEndian" type="UnstructuredGrid" version="0.1">
<UnstructuredGrid>
<Piece NumberOfCells="0" NumberOfPoints="117">
<Points>
<DataArray NumberOfComponents="3" format="ascii" type="Float32">0.97088268653925136 1 2 2.7292292934467586 1 2 4.8667672322673745 1.9024084630010303 2.1999999999999997 10.384210518024789 1 2 12.331675354710711 1 2 13.89463080336655 1 2 15.495274085509783 1 2 15.791965406770444 2.8604535841886176 2.1999999999999997 22.999214690112865 1 2 24.562078039532697 1 2 26.377892740658432 1 2 28.553262853398699 1.864781068139421 2.1999999999999997 30.46133139814448 1 2 39.588041378902261 2.7337193119082683 2.1999999999999997 40.458995879865562 1 2 42.308956216590616 1 2 43.786153763081863 1 2 47.403346607427224 1 2 44.836859937761581 4.5388014166455424 2.1999999999999997 53.311407561430272 1.828012702039683 2.1999999999999997 58.794096221558036 1.8941511084906912 2.1999999999999997 63.076739970864246 3.0412586917353583 2.1999999999999997 66.025409614358921 1.8373445296627517 2.1999999999999997 69.534079130167171 1.8949066396435625 2.1999999999999997 70.203474028692085 1 2 75.23542328766122 1 2 78.722484936578354 5.9961101793770117 2.1999999999999997 82.638732307665506 1 2 83.762659875889383 1 2 84.682470608964167 6.0858575064049694 2.1999999999999997 90.013697783946526 1.8231038553858063 2.1999999999999997 94.559449813995357 1.8361521045799365 2.1999999999999997 98.953084395179758 1 2 101.17689236215317 1.8354394564859349 2.1999999999999997 8.9506701623292493 1 2 20.217623773317381 3.9652087425666771 2.1999999999999997 31.479778389604281 1.8877532352987663 2.1999999999999997 35.7409817208435 1.8471510099110013 2.1999999999999997 48.346553618381542 5.1338823749886071 2 51.334566074930287 1.8376416438324963 2.1999999999999997 61.333063809086241 4.7757445477313798 2.1999999999999997 62.162527540397178 1.8208038736412731 2.1999999999999997 65.681506093511928 6.0543361971011365 2 73.424670194885636 3.6795997520572068 2.1999999999999997 75.384311727845926 2.5345450719131786 2.1999999999999997 86.34582549357674 1.8343250273125158 2.1999999999999997 88.737261202777646 5.5422341407036582 2.1999999999999997 98.461183049503276 2.6490207509414767 2.1999999999999997 107.94522034559253 1 2 7.4210947202437234 1.9201597409140709 2.1999999999999997 13.601458861492334 2.2667908336580478 2 26.305656699297845 4.8828230280985396 2 42.659804884091216 2.6546412783827504 2.1999999999999997 47.46780463200345 2.7177135734348208 2.1999999999999997 54.319343463014377 6.1616386828839769 2 57.233676727090696 1.837753116213692 2.1999999999999997 63.870049288836327 5.7547407068032586 2 66.975300435901985 3.8719288316456337 2.1999999999999997 70.755279629972406 4.1201811252230121 2.1999999999999997 78.833223907472203 1.8298328276420948 2.1999999999999997 81.106133746060081 1.8003505204639501 2.1999999999999997 92.451275226614413 1.8114667441263106 2.1999999999999997 96.653534615502522 4.5570655360336403 2 104.43667866434697 1.8984089446056522 2.1999999999999997 26.14581071880286 1.9646950526903506 2.1999999999999997 34.826220606364799 4.0612014333148796 2 37.292831004438398 3.3873418281893453 2.1999999999999997 50.643047097833858 4.7924900760169518 2.1999999999999997 56.116911912404589 6.5108998718265045 2 60.982256364421652 1 2 72.580416125579532 6.1984125702079185 2 77.081434970402199 1.8146008762625006 2.1999999999999997 84.106113787455271 2.7962524285200847 2.1999999999999997 92.467642917049417 5.6726281072796345 2.1999999999999997 97.375084387517461 1 2 1.9658807182500726 2.649540040941591 2 18.002450359931764 1.8599108548202257 2 29.05138275885497 4.2363135013535951 2 38.977926431783203 1 2 45.466688869346697 1.8522672954309489 2 55.234627745909741 1.8107704357450671 2 59.700417633941193 1 2 64.385531646647181 1.8167077852702613 2 64.900710903306461 4.5127157059598977 2 67.906061131623247 1.8304379242965649 2 77.306254835183069 4.0030941839231104 2 82.82218735579977 2.1755558372238863 2 88.46439663243261 3.6698737980640885 2 96.129901351532467 1 2 101.85609075493652 4.0113779395953237 2 20.886892509662076 1.8339874100373355 2 32.598051622612417 4.5108485766517701 2 33.5642778306214 1.8376319443860045 2 48.840374575266878 1 2 58.657267392953884 5.026861117920074 2 60.38837672210903 2.5762338213901987 2 74.374959981947512 5.6713037536990329 2 73.432382064980715 1.8089930139198735 2 88.111524510208525 1.7990053706090561 2 86.09511484993034 3.8435166510196224 2 96.612587448857425 2.4145343655212543 2 11.011839752594502 2.5329566043209994 2 41.197562766656752 1.4335829371427082 2 49.663504395276192 1.9021672089141775 2 56.11319005162251 4.0096609524131592 2 68.683680455437283 5.7102499024451143 2 71.703795138141686 1.8272534892267249 2 80.360059537102401 2.7937005815811862 2 81.826047382323239 4.9061312875204877 2 91.10361056623691 3.2831014167253327 2 106.29382561671964 1 2 23.63940345104383 2.7619774944847753 2 37.643383439206168 1 2 53.230202761564357 4.0237611795958061 2 75.872836531360207 5.8445494664608582 2 84.872442673807541 1 2 94.736521005860553 3.7058317987254408 2 </DataArray>
</Points>
<Cells>
<DataArray Name="connectivity" format="ascii" type="Int32">0</DataArray>
<DataArray Name="offsets" format="ascii" type="Int32">0</DataArray>
<DataArray Name="types" format="ascii" type="UInt8">1</DataArray>
</Cells>
<PointData>
<DataArray Name="Points" NumberOfComponents="3" format="ascii" type="Float32">0.97088268653925136 1 2 2.7292292934467586 1 2 4.8667672322673745 1.9024084630010303 2.1999999999999997 10.384210518024789 1 2 12.331675354710711 1 2 13.89463080336655 1 2 15.495274085509783 1 2 15.791965406770444 2.8604535841886176 2.1999999999999997 22.999214690112865 1 2 24.562078039532697 1 2 26.377892740658432 1 2 28.553262853398699 1.864781068139421 2.1999999999999997 30.46133139814448 1 2 39.588041378902261 2.7337193119082683 2.1999999999999997 40.458995879865562 1 2 42.308956216590616 1 2 43.786153763081863 1 2 47.403346607427224 1 2 44.836859937761581 4.5388014166455424 2.1999999999999997 53.311407561430272 1.828012702039683 2.1999999999999997 58.794096221558036 1.8941511084906912 2.1999999999999997 63.076739970864246 3.0412586917353583 2.1999999999999997 66.025409614358921 1.8373445296627517 2.1999999999999997 69.534079130167171 1.8949066396435625 2.1999999999999997 70.203474028692085 1 2 75.23542328766122 1 2 78.722484936578354 5.9961101793770117 2.1999999999999997 82.638732307665506 1 2 83.762659875889383 1 2 84.682470608964167 6.0858575064049694 2.1999999999999997 90.013697783946526 1.8231038553858063 2.1999999999999997 94.559449813995357 1.8361521045799365 2.1999999999999997 98.953084395179758 1 2 101.17689236215317 1.8354394564859349 2.1999999999999997 8.9506701623292493 1 2 20.217623773317381 3.9652087425666771 2.1999999999999997 31.479778389604281 1.8877532352987663 2.1999999999999997 35.7409817208435 1.8471510099110013 2.1999999999999997 48.346553618381542 5.1338823749886071 2 51.334566074930287 1.8376416438324963 2.1999999999999997 61.333063809086241 4.7757445477313798 2.1999999999999997 62.162527540397178 1.8208038736412731 2.1999999999999997 65.681506093511928 6.0543361971011365 2 73.424670194885636 3.6795997520572068 2.1999999999999997 75.384311727845926 2.5345450719131786 2.1999999999999997 86.34582549357674 1.8343250273125158 2.1999999999999997 88.737261202777646 5.5422341407036582 2.1999999999999997 98.461183049503276 2.6490207509414767 2.1999999999999997 107.94522034559253 1 2 7.4210947202437234 1.9201597409140709 2.1999999999999997 13.601458861492334 2.2667908336580478 2 26.305656699297845 4.8828230280985396 2 42.659804884091216 2.6546412783827504 2.1999999999999997 47.46780463200345 2.7177135734348208 2.1999999999999997 54.319343463014377 6.1616386828839769 2 57.233676727090696 1.837753116213692 2.1999999999999997 63.870049288836327 5.7547407068032586 2 66.975300435901985 3.8719288316456337 2.1999999999999997 70.755279629972406 4.1201811252230121 2.1999999999999997 78.833223907472203 1.8298328276420948 2.1999999999999997 81.106133746060081 1.8003505204639501 2.1999999999999997 92.451275226614413 1.8114667441263106 2.1999999999999997 96.653534615502522 4.5570655360336403 2 104.43667866434697 1.8984089446056522 2.1999999999999997 26.14581071880286 1.9646950526903506 2.1999999999999997 34.826220606364799 4.0612014333148796 2 37.292831004438398 3.3873418281893453 2.1999999999999997 50.643047097833858 4.7924900760169518 2.1999999999999997 56.116911912404589 6.5108998718265045 2 60.982256364421652 1 2 72.580416125579532 6.1984125702079185 2 77.081434970402199 1.8146008762625006 2.1999999999999997 84.106113787455271 2.7962524285200847 2.1999999999999997 92.467642917049417 5.6726281072796345 2.1999999999999997 97.375084387517461 1 2 1.9658807182500726 2.649540040941591 2 18.002450359931764 1.8599108548202257 2 29.05138275885497 4.2363135013535951 2 38.977926431783203 1 2 45.466688869346697 1.8522672954309489 2 55.234627745909741 1.8107704357450671 2 59.700417633941193 1 2 64.385531646647181 1.8167077852702613 2 64.900710903306461 4.5127157059598977 2 67.906061131623247 1.8304379242965649 2 77.306254835183069 4.0030941839231104 2 82.82218735579977 2.1755558372238863 2 88.46439663243261 3.6698737980640885 2 96.129901351532467 1 2 101.85609075493652 4.0113779395953237 2 20.886892509662076 1.8339874100373355 2 32.598051622612417 4.5108485766517701 2 33.5642778306214 1.8376319443860045 2 48.840374575266878 1 2 58.657267392953884 5.026861117920074 2 60.38837672210903 2.5762338213901987 2 74.374959981947512 5.6713037536990329 2 73.432382064980715 1.8089930139198735 2 88.111524510208525 1.7990053706090561 2 86.09511484993034 3.8435166510196224 2 96.612587448857425 2.4145343655212543 2 11.011839752594502 2.5329566043209994 2 41.197562766656752 1.4335829371427082 2 49.663504395276192 1.9021672089141775 2 56.11319005162251 4.0096609524131592 2 68.683680455437283 5.7102499024451143 2 71.703795138141686 1.8272534892267249 2 80.360059537102401 2.7937005815811862 2 81.826047382323239 4.9061312875204877 2 91.10361056623691 3.2831014167253327 2 106.29382561671964 1 2 23.63940345104383 2.7619774944847753 2 37.643383439206168 1 2 53.230202761564357 4.0237611795958061 2 75.872836531360207 5.8445494664608582 2 84.872442673807541 1 2 94.736521005860553 3.7058317987254408 2 </DataArray>
<DataArray Name="forces" NumberOfComponents="3" format="ascii" type="Float32">-0.81179198186416768 -0.92687987893419366 0.0 0.14236125164140001 -1.3209869021623812 0.0 0.11700188593838567 0.081951379773241184 0.0 0.011731413585347794 -1.2344109614009873 0.0 0.11198424135095686 -0.86700926627838115 0.0 -0.033845138221488991 -0.89902470410875401 0.0 -0.10585927290552691 -1.1742241391023744 0.0 -0.33292763676141002 2.1283375471519026 0.0 -0.13619090136311268 -1.3180128887966793 0.0 -0.2371741737359232 -1.4803092900257833 0.0 0.022620693704390793 -2.1071083829723247 0.0 -0.04179775815404313 -0.96710204640455799 0.0 -0.49030874588747775 -1.4709550263559314 0.0 0.15099850524885927 2.4142971111594136 0.0 -0.32691009932052262 -1.675091002831929 0.0 0.10401635174799795 -1.552654702893344 0.0 0.075849096924803239 -1.3115587131747302 0.0 -0.33322122818115751 -1.8105140915164637 0.0 -0.091245677226043931 2.3752324270433451 0.0 -0.024895672110460745 -1.9922057128623223 0.0 -0.21778625438224641 -0.14826402770036817 0.0 -0.039701227106297421 2.2069465986248171 0.0 -0.072509988452861496 -1.7320339476767119 0.0 -0.1147457862707324 -0.12719978587818306 0.0 0.37835672516633356 -2.2848069704149605 0.0 -0.081940470443987889 -2.1934698247307507 0.0 0.17611261614431525 1.8615842664972717 0.0 -0.25274617739704835 -1.9199400976450187 0.0 0.01516594540238847 -1.6348599198546889 0.0 0.23376981587205958 2.1181011908976077 0.0 -0.083935914017695623 -2.129064573800497 0.0 0.064487744786620532 -1.7652788115103264 0.0 0.20288127939798045 -1.4018340780390453 0.0 0.34337188109944761 -1.7851474717622797 0.0 0.12506206518865903 -0.87118255266416322 0.0 -0.19781296101887574 2.4245961061930918 0.0 0.30568656128880534 -0.32663701410894264 0.0 -0.15839253307704393 -1.4586288463932462 0.0 -0.51324112927014709 0.49758902200291866 0.0 -0.031279262320956236 -1.7237503915367529 0.0 0.079388921356421727 2.4600439081939944 0.0 -0.18993332529191265 -2.1931881661491883 0.0 0.053942698352275831 0.6648174245370384 0.0 0.42512051120939875 2.7880044048655011 0.0 -0.04510738254569438 1.3383023080841769 0.0 0.25558685375315526 -1.8162178062063115 0.0 0.03341183483162613 2.4225064905444067 0.0 0.34038888230834241 2.1252133066845538 0.0 0.3458050160049595 0.0 0.0 0.11950379033250896 0.57685778990873637 0.0 -0.32714101130409096 0.58390496200521458 0.0 -0.16992892883987776 0.12684531784468056 0.0 -0.20600475397112183 2.4211439336257841 0.0 -0.046573732706226334 2.1994299522163718 0.0 -0.024262833859353516 0.65840619123808697 0.0 -0.16606972965105116 -1.7206425366388101 0.0 -0.10769364906052559 0.5324677859478415 0.0 -0.18322472201679918 2.4463851038936824 0.0 -0.013793742415898258 2.4406395188082155 0.0 -0.089836403930605435 -1.9414605308929991 0.0 0.17461512543693988 -2.7634285536756513 0.0 0.28091402029039514 -2.4535077483143386 0.0 0.5693794753908632 0.63010295147351281 0.0 0.53955914567559304 -0.029555369263300213 0.0 -0.028378762592502271 1.7905399916771079 0.0 0.21077661554679564 1.0219342284112103 0.0 0.18233641444103432 2.2116891267447594 0.0 -0.46623640823122903 2.4415541556302576 0.0 0.10830489490629185 0.56647212852026463 0.0 0.25259771406132142 -1.4964360144342621 0.0 -0.077565941188220286 0.52806990748926164 0.0 0.16670587923972169 -2.3661280063030574 0.0 0.21139645637487237 1.9796808912984725 0.0 0.14100621397419622 2.0429975004046943 0.0 -0.028673544941277496 -1.1727829425799703 0.0 -0.95124707809643794 2.2254533172556301 0.0 -0.096886855565856189 -1.10288380827007 0.0 -0.16085757621434849 2.2202104479483022 0.0 -0.19217053670392925 -1.1118907362015022 0.0 -0.16778580584360236 -1.3159865807316178 0.0 -0.18585711472848487 -2.4729208566548557 0.0 0.27626739316440196 -1.7154443750621562 0.0 0.017933283454829752 -2.3073872903601829 0.0 -0.16083457327635692 0.75664114746395672 0.0 0.023619606104297947 -1.924590409512676 0.0 -0.4576219271126396 2.5412295609341471 0.0 0.15534291774069656 0.42409736172575918 0.0 0.087942363207442364 0.69971365593603529 0.0 -0.079902377717600226 -1.1538035871858134 0.0 0.33755879301244474 2.3162401764295653 0.0 0.02600801146595888 -1.8256305907099246 0.0 -0.15892356829028659 2.3831274971083372 0.0 0.24388202670987169 -1.7240208125321939 0.0 -0.44916613896424562 -2.0581169781932651 0.0 0.15343553706789748 2.075247849098091 0.0 -0.35731524246475893 0.74158131162183138 0.0 -0.025565177179023457 0.60040312921843741 0.0 -0.22972058159960174 -2.5224754554342907 0.0 0.045232789533185547 -2.8009313908821385 0.0 -0.30005872830384217 2.2019866978546387 0.0 0.33212964324830263 0.44083029177445898 0.0 0.19284670251619679 2.3158898004154995 0.0 0.11038285707633633 -0.33218776210532608 0.0 0.18837789074806188 0.075225205204866086 0.0 -0.08444741395992561 2.685033397622191 0.0 -0.086077340401962979 2.2745227593233768 0.0 0.022477956705812652 -2.0133725995299017 0.0 -0.037546380923377476 1.6830419225743669 0.0 0.20524112243556558 2.2427802562072081 0.0 0.24575385787268939 1.9524602361089289 0.0 0.42387625215781832 -0.41351894617447837 0.0 0.061574549074595364 2.5194215340719421 0.0 -0.12307738768190235 -1.1962007282763056 0.0 -0.20622514470441244 2.7435889887308544 0.0 -0.067844253602224514 0.56692514302866193 0.0 0.29554663135322279 -1.6011533543665899 0.0 0.69443748163489616 2.3788865620583577 0.0 </DataArray>
<DataArray Name="radii" format="ascii" type="Float32">1 1 1.9999999999999998 1 1 1 1 1.9999999999999998 1 1 1 1.9999999999999998 1 1.9999999999999998 1 1 1 1 1.9999999999999998 1.9999999999999998 1.9999999999999998 1.9999999999999998 1.9999999999999998 1.9999999999999998 1 1 1.9999999999999998 1 1 1.9999999999999998 1.9999999999999998 1.9999999999999998 1 1.9999999999999998 1 1.9999999999999998 1.9999999999999998 1.9999999999999998 1 1.9999999999999998 1.9999999999999998 1.9999999999999998 1 1.9999999999999998 1.9999999999999998 1.9999999999999998 1.9999999999999998 1.9999999999999998 1 1.9999999999999998 1 1 1.9999999999999998 1.9999999999999998 1 1.9999999999999998 1 1.9999999999999998 1.9999999999999998 1.9999999999999998 1.9999999999999998 1.9999999999999998 1 1.9999999999999998 1.9999999999999998 1 1.9999999999999998 1.9999999999999998 1 1 1 1.9999999999999998 1.9999999999999998 1.9999999999999998 1 1.9999999999999998 1.9999999999999998 1.9999999999999998 1 1.9999999999999998 1.9999999999999998 1 1.9999999999999998 1 1.9999999999999998 1.9999999999999998 1 1 1 1.9999999999999998 1.9999999999999998 1.9999999999999998 1.9999999999999998 1 1.9999999999999998 1 1 1.9999999999999998 1.9999999999999998 1.9999999999999998 1 1.9999999999999998 1 1.9999999999999998 1.9999999999999998 1.9999999999999998 1.9999999999999998 1.9999999999999998 1.9999999999999998 1.9999999999999998 1 1.9999999999999998 1 1.9999999999999998 1 1 1.9999999999999998 </DataArray>
</PointData>
<CellData/>
</Piece>
</UnstructuredGrid>
</VTKFile>
