<?xml version="1.0" ?>
<VTKFile byte_order="LittleEndian" type="UnstructuredGrid" version="0.1">
<UnstructuredGrid>
<Piece NumberOfCells="0" NumberOfPoints="34">
<Points>
<DataArray NumberOfComponents="3" format="ascii" type="Float32">1.8207829683088144 2.053474591732205 2.0 4.9999999999999964 2.1029605720516451 2.0 7.1592642080760935 1 2.0 9.6502478691185285 2.0536668802465741 2.0 13.394441683309665 2.0223123287860485 2.0 16.063077218416517 1 2.0 19.0 1.0 2.0 22.0 1.0 2.0 25.0 2.0 2.0 28.0 1.0 2.0 31.0 1.0 2.0 34.0 2.0 2.0 36.907672875470602 1 2.0 39.443964190051894 2.0506708171152424 2.0 42.843460452221109 2.0119876685372748 2.0 46.008939424588604 2.0129290984318264 2.0 49.172180771049376 2.0150430091926612 2.0 52.565477582520131 2.0376901935456342 2.0 55.099358309872528 1 2.0 58.0 1.0 2.0 61.0 2.0 2.0 63.942967700209373 1 2.0 66.614790910389488 2.0364757126331354 2.0 70.389800261345144 2.0223938893365747 2.0 73.062704659009981 1 2.0 76.0 2.0 2.0 79.0 1.0 2.0 82.0 1.0 2.0 85.0 1.0 2.0 88.0 2.0 2.0 91.0 1.0 2.0 93.972531009409508 2.0099961780024618 2.0 96.709591514897866 1 2.0 99.317877475692626 2.1492245043029934 2.0 </DataArray>
</Points>
<Cells>
<DataArray Name="connectivity" format="ascii" type="Int32">0</DataArray>
<DataArray Name="offsets" format="ascii" type="Int32">0</DataArray>
<DataArray Name="types" format="ascii" type="UInt8">1</DataArray>
</Cells>
<PointData>
<DataArray Name="Points" NumberOfComponents="3" format="ascii" type="Float32">1.8207829683088144 2.053474591732205 2.0 4.9999999999999964 2.1029605720516451 2.0 7.1592642080760935 1 2.0 9.6502478691185285 2.0536668802465741 2.0 13.394441683309665 2.0223123287860485 2.0 16.063077218416517 1 2.0 19.0 1.0 2.0 22.0 1.0 2.0 25.0 2.0 2.0 28.0 1.0 2.0 31.0 1.0 2.0 34.0 2.0 2.0 36.907672875470602 1 2.0 39.443964190051894 2.0506708171152424 2.0 42.843460452221109 2.0119876685372748 2.0 46.008939424588604 2.0129290984318264 2.0 49.172180771049376 2.0150430091926612 2.0 52.565477582520131 2.0376901935456342 2.0 55.099358309872528 1 2.0 58.0 1.0 2.0 61.0 2.0 2.0 63.942967700209373 1 2.0 66.614790910389488 2.0364757126331354 2.0 70.389800261345144 2.0223938893365747 2.0 73.062704659009981 1 2.0 76.0 2.0 2.0 79.0 1.0 2.0 82.0 1.0 2.0 85.0 1.0 2.0 88.0 2.0 2.0 91.0 1.0 2.0 93.972531009409508 2.0099961780024618 2.0 96.709591514897866 1 2.0 99.317877475692626 2.1492245043029934 2.0 </DataArray>
<DataArray Name="forces" NumberOfComponents="3" format="ascii" type="Float32">-1.0999751562782494 -0.0038768431438107858 0.0 0.61376708781431577 0.23711868842391418 0.0 0.24921162811327324 -0.33004606862682395 0.0 -0.053201903361969394 0.0986147338562154 0.0 0.15836362834955897 0.048224105877900846 0.0 0.13183471536307079 -0.050034616387395717 0.0 0.0 0.0 0.0 0.0 0.0 0.0 0.0 0.0 0.0 0.0 0.0 0.0 0.0 0.0 0.0 0.0 0.0 0.0 -0.21321514504904224 -0.08597643341545369 0.0 -0.41456916268006261 0.090304985419459943 0.0 -0.24654644736146569 -0.0044145507778931767 0.0 -0.0022073237162770765 -0.0005233257700239316 0.0 0.24195162813499849 -0.00087538201416556278 0.0 0.41315710832655839 0.089798513079537984 0.0 0.22142934234529074 -0.088313806521461563 0.0 0.0 0.0 0.0 0.0 0.0 0.0 -0.12471199280292182 -0.047940690204592386 0.0 -0.14737912358186811 0.048961416937115448 0.0 0.14188079363983336 0.048366093120533082 0.0 0.13021032274495659 -0.049386819853056145 0.0 0.0 0.0 0.0 0.0 0.0 0.0 0.0 0.0 0.0 0.0 0.0 0.0 0.0 0.0 0.0 0.0 0.0 0.0 -0.074292155509277299 0.027241514258798779 0.0 -0.10659675005299581 -0.10747637143119206 0.0 0.18088890556227311 0.080234857172393273 0.0 </DataArray>
<DataArray Name="radii" format="ascii" type="Float32">2 2 1 2 2 1 1 1 2 1 1 2 1 2 2 2 2 2 1 1 2 1 2 2 1 2 1 1 1 2 1 2 1 2 </DataArray>
</PointData>
<CellData/>
</Piece>
</UnstructuredGrid>
</VTKFile>
