<?xml version="1.0" ?>
<VTKFile byte_order="LittleEndian" type="UnstructuredGrid" version="0.1">
<UnstructuredGrid>
<Piece NumberOfCells="0" NumberOfPoints="75">
<Points>
<DataArray NumberOfComponents="3" format="ascii" type="Float32">0.98806985137172032 1 2 2.4363429737328013 1 2 4.5502271608367897 2.0867845466704806 2.1999999999999997 10.438101855337617 1 2 12.0634944863702 1 2 13.799059177477282 1 2 15.49300023523892 1 2 17.968509733155244 2.0794895920858023 2.1999999999999997 23.320859591615232 1 2 25.698523998468097 1 2 27.046568119821369 1 2 28.77200007967518 2.0692074255702093 2.1999999999999997 31.592679797346705 1 2 39.591539599050883 2.0896549719969548 2.1999999999999997 41.63049223143215 1 2 43.612348656814838 1 2 44.959335544478684 1 2 46.745528600166018 1 2 45.946877158274596 2.1435602879304545 2.1999999999999997 54.335774481684162 2.0374999582618298 2.1999999999999997 59.075525051826169 2.0303341793954406 2.1999999999999997 63.949348049927636 2.0602727056437584 2.1999999999999997 66.19769980216779 2.0339289658459787 2.1999999999999997 68.905965187575489 2.0458174690840694 2.1999999999999997 70.969955478872592 1 2 74.690629466692684 1 2 78.483612084853519 3.7718209622611636 2.1999999999999997 82.075740139254151 1 2 83.38494786738751 1 2 82.532962708813429 3.6742945042484827 2.1999999999999997 88.399223103306312 2.0162455788593312 2.1999999999999997 93.99072844781054 2.0449506650752536 2.1999999999999997 97.770028352500461 1 2 100.18324672115592 2.0846786230534828 2.1999999999999997 8.6356538677938115 1 2 21.101495305363756 2.0853711484754216 2.1999999999999997 31.749758305093795 2.1214849964532987 2.1999999999999997 34.401319371366256 2.0585466531033236 2.1999999999999997 49.695718777176232 4.1389970003358885 2 51.078578257319926 2.0333536884831589 2.1999999999999997 59.495814669120023 3.6118412438647667 2.1999999999999997 62.230721197121376 2.089565351118841 2.1999999999999997 65.264635497587335 5.1874051854925529 2 72.97918777332761 2.0798703648275412 2.1999999999999997 74.951457082900873 2.6577549853410827 2.1999999999999997 86.077292779332097 2.0678926280158039 2.1999999999999997 88.742672628623239 3.3530644208775162 2.1999999999999997 97.08460987142405 2.1269957022974806 2.1999999999999997 105.57345965576633 1 2 7.9863292744624967 2.1169862753019579 2.1999999999999997 15.568520655788719 2.8211528337609137 2 28.612993311437179 4.2396772089213872 2 42.631240569187348 2.1372354044021367 2.1999999999999997 48.633164137100842 2.0689200381456962 2.1999999999999997 55.254342777400311 4.2151834738815275 2 56.56592033997525 2.0299786510317257 2.1999999999999997 64.667757701633988 4.0176399751008054 2 67.774448157053016 3.5382352107107358 2.1999999999999997 71.077560994477992 2.1085443203187189 2.1999999999999997 79.095519631298117 2.0251277063447541 2.1999999999999997 81.020774628050887 2.0593580852335469 2.1999999999999997 91.310186149400153 2.0171359411742289 2.1999999999999997 94.88211201934692 4.0928709011426987 2 103.3473308501062 2.0850331570432923 2.1999999999999997 24.694538154293177 2.1294010912285022 2.1999999999999997 34.699096575307706 4.2827898282765533 2 37.034689234152246 2.0775113958910607 2.1999999999999997 52.564176842516183 3.2950826912706881 2.1999999999999997 56.729766457882157 4.3447128588564405 2 61.190332854364883 1 2 72.594866079296395 4.8042766004721296 2 76.719030722983391 2.0432920179010048 2.1999999999999997 84.548043368056383 2.0816032395916984 2.1999999999999997 92.193637638182338 3.8488022192187161 2.1999999999999997 95.726844593836944 1 2 </DataArray>
</Points>
<Cells>
<DataArray Name="connectivity" format="ascii" type="Int32">0</DataArray>
<DataArray Name="offsets" format="ascii" type="Int32">0</DataArray>
<DataArray Name="types" format="ascii" type="UInt8">1</DataArray>
</Cells>
<PointData>
<DataArray Name="Points" NumberOfComponents="3" format="ascii" type="Float32">0.98806985137172032 1 2 2.4363429737328013 1 2 4.5502271608367897 2.0867845466704806 2.1999999999999997 10.438101855337617 1 2 12.0634944863702 1 2 13.799059177477282 1 2 15.49300023523892 1 2 17.968509733155244 2.0794895920858023 2.1999999999999997 23.320859591615232 1 2 25.698523998468097 1 2 27.046568119821369 1 2 28.77200007967518 2.0692074255702093 2.1999999999999997 31.592679797346705 1 2 39.591539599050883 2.0896549719969548 2.1999999999999997 41.63049223143215 1 2 43.612348656814838 1 2 44.959335544478684 1 2 46.745528600166018 1 2 45.946877158274596 2.1435602879304545 2.1999999999999997 54.335774481684162 2.0374999582618298 2.1999999999999997 59.075525051826169 2.0303341793954406 2.1999999999999997 63.949348049927636 2.0602727056437584 2.1999999999999997 66.19769980216779 2.0339289658459787 2.1999999999999997 68.905965187575489 2.0458174690840694 2.1999999999999997 70.969955478872592 1 2 74.690629466692684 1 2 78.483612084853519 3.7718209622611636 2.1999999999999997 82.075740139254151 1 2 83.38494786738751 1 2 82.532962708813429 3.6742945042484827 2.1999999999999997 88.399223103306312 2.0162455788593312 2.1999999999999997 93.99072844781054 2.0449506650752536 2.1999999999999997 97.770028352500461 1 2 100.18324672115592 2.0846786230534828 2.1999999999999997 8.6356538677938115 1 2 21.101495305363756 2.0853711484754216 2.1999999999999997 31.749758305093795 2.1214849964532987 2.1999999999999997 34.401319371366256 2.0585466531033236 2.1999999999999997 49.695718777176232 4.1389970003358885 2 51.078578257319926 2.0333536884831589 2.1999999999999997 59.495814669120023 3.6118412438647667 2.1999999999999997 62.230721197121376 2.089565351118841 2.1999999999999997 65.264635497587335 5.1874051854925529 2 72.97918777332761 2.0798703648275412 2.1999999999999997 74.951457082900873 2.6577549853410827 2.1999999999999997 86.077292779332097 2.0678926280158039 2.1999999999999997 88.742672628623239 3.3530644208775162 2.1999999999999997 97.08460987142405 2.1269957022974806 2.1999999999999997 105.57345965576633 1 2 7.9863292744624967 2.1169862753019579 2.1999999999999997 15.568520655788719 2.8211528337609137 2 28.612993311437179 4.2396772089213872 2 42.631240569187348 2.1372354044021367 2.1999999999999997 48.633164137100842 2.0689200381456962 2.1999999999999997 55.254342777400311 4.2151834738815275 2 56.56592033997525 2.0299786510317257 2.1999999999999997 64.667757701633988 4.0176399751008054 2 67.774448157053016 3.5382352107107358 2.1999999999999997 71.077560994477992 2.1085443203187189 2.1999999999999997 79.095519631298117 2.0251277063447541 2.1999999999999997 81.020774628050887 2.0593580852335469 2.1999999999999997 91.310186149400153 2.0171359411742289 2.1999999999999997 94.88211201934692 4.0928709011426987 2 103.3473308501062 2.0850331570432923 2.1999999999999997 24.694538154293177 2.1294010912285022 2.1999999999999997 34.699096575307706 4.2827898282765533 2 37.034689234152246 2.0775113958910607 2.1999999999999997 52.564176842516183 3.2950826912706881 2.1999999999999997 56.729766457882157 4.3447128588564405 2 61.190332854364883 1 2 72.594866079296395 4.8042766004721296 2 76.719030722983391 2.0432920179010048 2.1999999999999997 84.548043368056383 2.0816032395916984 2.1999999999999997 92.193637638182338 3.8488022192187161 2.1999999999999997 95.726844593836944 1 2 </DataArray>
<DataArray Name="forces" NumberOfComponents="3" format="ascii" type="Float32">-0.56025992768785171 0.0 0.0 -0.15953348643972287 -0.36951951426654223 0.0 -0.30524360859559241 0.39574681952552881 0.0 0.27850837802589962 -0.21152413814839802 0.0 0.10982391275470604 0.0 0.0 -0.042510966414054607 0.0 0.0 -0.15317518611789557 -0.35470342956772438 0.0 -0.17708649537962584 0.05316343222305614 0.0 -0.44358997430414626 -1.2106617328902511 0.0 0.45450430060659142 -1.2516210255518858 0.0 0.19727134156956994 -0.85541895798530865 0.0 -0.24836374651687743 -0.4297044722760886 0.0 -0.3388617871978582 -2.1202338400274052 0.0 -0.23215741161628589 0.53054684054383783 0.0 -0.41262184112627376 -1.6633238848882881 0.0 -0.067902987994995057 -1.5283751183664283 0.0 -0.11644096277008997 -1.5234090007116259 0.0 0.35589917346667899 -1.9557998403297283 0.0 -0.03751955855854705 3.0620315141969132 0.0 0.52889199556551292 -1.9187406858944116 0.0 -0.80076917353029053 -2.2552577633090016 0.0 -0.059073625050534373 -0.84929400932833565 0.0 -0.32593324443149041 -2.0864405205751142 0.0 0.1329134689573257 -1.5281363307429163 0.0 -0.29508423388624189 -2.8557083860715062 0.0 -0.046070834760495116 -2.4625799536988078 0.0 -0.24306526152291386 4.696168883929813 0.0 0.00089778998010570099 -1.8454436306811424 0.0 -0.097414535194373375 -1.7791655812831191 0.0 0.45870174255576845 3.9642292296790531 0.0 0.01282296930714355 -2.9168822378669494 0.0 0.48171124349225658 -1.5688429108895607 0.0 0.45817943069971023 -1.8021915434466924 0.0 0.51246946644502356 0.29684908990475234 0.0 0.7322149867862916 -1.6393870654936926 0.0 -0.12222974276785881 0.32937125328313616 0.0 -0.073305317650281143 2.0253385448099093 0.0 -0.030087124838186208 -0.93035235165251984 0.0 -0.19015511549634412 1.3840566869294815 0.0 -0.75093072767480606 -2.1134565170841517 0.0 0.92670414951455793 3.8753276504777046 0.0 0.23305976410578166 0.5263380927523561 0.0 0.11786274069023955 0.7701995363298022 0.0 -0.23260276719605016 0.07104516323907728 0.0 -0.2332137596877053 2.8061799392796729 0.0 0.14993077745924088 -0.4914495859127373 0.0 0.0081561242880433538 4.209537284044746 0.0 0.35745429291583164 2.2841305979492863 0.0 0.64076305065422012 -0.31227423229813001 0.0 -0.29947327659122813 1.8140710019258905 0.0 -0.68461600538472389 0.34391074564297719 0.0 -0.090242880953746246 1.134142419126636 0.0 -0.2336645397805549 2.7650043019952433 0.0 -0.20325285644146401 -0.44320067108238331 0.0 -0.096329830692039875 1.4981409727066526 0.0 -0.17338919382195167 -2.2719539756993226 0.0 -0.31765296394118858 1.2474835754786433 0.0 -0.098087104894924892 3.8665958310210828 0.0 0.093191690226522073 1.4176225388076371 0.0 0.14648545043345074 -2.4997625306655356 0.0 -0.26973830048927994 -0.89224612843876394 0.0 0.040442304741442614 -2.8750693198804798 0.0 0.75180635290871689 1.2142330848545237 0.0 0.65733487662888623 0.31349860481712699 0.0 -0.0082583962496859398 2.3970917244654135 0.0 0.15073403012786188 1.0693254847358007 0.0 -0.02752669036618613 -0.039736001937490953 0.0 0.0095974749394018566 2.8052164998471927 0.0 0.25454425069783532 1.1683322020314446 0.0 -0.53460933213941575 -1.694899832060794 0.0 -0.023533140553490289 0.71294077283178314 0.0 0.24419786942990385 -1.6467357833808192 0.0 0.4079554970255469 0.15242388871089255 0.0 0.38009994338547659 3.7411712089244609 0.0 -0.15011220167680817 -1.5176841264337031 0.0 </DataArray>
<DataArray Name="radii" format="ascii" type="Float32">1 1 2.1999999999999997 1 1 1 1 2.1999999999999997 1 1 1 2.1999999999999997 1 2.1999999999999997 1 1 1 1 2.1999999999999997 2.1999999999999997 2.1999999999999997 2.1999999999999997 2.1999999999999997 2.1999999999999997 1 1 2.1999999999999997 1 1 2.1999999999999997 2.1999999999999997 2.1999999999999997 1 2.1999999999999997 1 2.1999999999999997 2.1999999999999997 2.1999999999999997 1 2.1999999999999997 2.1999999999999997 2.1999999999999997 1 2.1999999999999997 2.1999999999999997 2.1999999999999997 2.1999999999999997 2.1999999999999997 1 2.1999999999999997 1 1 2.1999999999999997 2.1999999999999997 1 2.1999999999999997 1 2.1999999999999997 2.1999999999999997 2.1999999999999997 2.1999999999999997 2.1999999999999997 1 2.1999999999999997 2.1999999999999997 1 2.1999999999999997 2.1999999999999997 1 1 1 2.1999999999999997 2.1999999999999997 2.1999999999999997 1 </DataArray>
</PointData>
<CellData/>
</Piece>
</UnstructuredGrid>
</VTKFile>
