<?xml version="1.0" ?>
<VTKFile byte_order="LittleEndian" type="UnstructuredGrid" version="0.1">
<UnstructuredGrid>
<Piece NumberOfCells="0" NumberOfPoints="34">
<Points>
<DataArray NumberOfComponents="3" format="ascii" type="Float32">0.97645635356391947 1 2 2.9463545608620385 1 2 5.8930428101186285 2.0816743272825451 2.1999999999999997 8.845442898033701 1 2 11.0 1 2 14.0 1 2 16.977479580864216 1 2 20.0 2.078357532453003 2.1999999999999997 23.0 1 2 26.0 1 2 28.977479580864216 1 2 32.0 2.078357532453003 2.1999999999999997 34.97747958086422 1 2 38.0 2.078357532453003 2.1999999999999997 41.0 1 2 43.358906354525573 1 2 45.288313866278578 1 2 47.150586826658575 1 2 49.913124357821374 2.1128316267353608 2.1999999999999997 54.09603945182311 2.0815534927126063 2.1999999999999997 58.238288592213848 2.0819240215487285 2.1999999999999997 62.352973799106699 2.0821826441915889 2.1999999999999997 66.450709425303145 2.0803286792037792 2.1999999999999997 70.544420255502516 2.1389295630948291 2.1999999999999997 73.139806200572906 1 2 74.849833885143397 1 2 77.490755467070784 2.1783575324530031 2.1999999999999997 80.153855553951004 1 2 81.925468951667156 1 2 84.677122396139609 2.1131954972557008 2.1999999999999997 88.922869979580071 2.0797052945696914 2.1999999999999997 93.192294713610394 2.0972697329023857 2.1999999999999997 96.030727207226818 1 2 98.952494229108353 2.0842003019858053 2.1999999999999997 </DataArray>
</Points>
<Cells>
<DataArray Name="connectivity" format="ascii" type="Int32">0</DataArray>
<DataArray Name="offsets" format="ascii" type="Int32">0</DataArray>
<DataArray Name="types" format="ascii" type="UInt8">1</DataArray>
</Cells>
<PointData>
<DataArray Name="Points" NumberOfComponents="3" format="ascii" type="Float32">0.97645635356391947 1 2 2.9463545608620385 1 2 5.8930428101186285 2.0816743272825451 2.1999999999999997 8.845442898033701 1 2 11.0 1 2 14.0 1 2 16.977479580864216 1 2 20.0 2.078357532453003 2.1999999999999997 23.0 1 2 26.0 1 2 28.977479580864216 1 2 32.0 2.078357532453003 2.1999999999999997 34.97747958086422 1 2 38.0 2.078357532453003 2.1999999999999997 41.0 1 2 43.358906354525573 1 2 45.288313866278578 1 2 47.150586826658575 1 2 49.913124357821374 2.1128316267353608 2.1999999999999997 54.09603945182311 2.0815534927126063 2.1999999999999997 58.238288592213848 2.0819240215487285 2.1999999999999997 62.352973799106699 2.0821826441915889 2.1999999999999997 66.450709425303145 2.0803286792037792 2.1999999999999997 70.544420255502516 2.1389295630948291 2.1999999999999997 73.139806200572906 1 2 74.849833885143397 1 2 77.490755467070784 2.1783575324530031 2.1999999999999997 80.153855553951004 1 2 81.925468951667156 1 2 84.677122396139609 2.1131954972557008 2.1999999999999997 88.922869979580071 2.0797052945696914 2.1999999999999997 93.192294713610394 2.0972697329023857 2.1999999999999997 96.030727207226818 1 2 98.952494229108353 2.0842003019858053 2.1999999999999997 </DataArray>
<DataArray Name="forces" NumberOfComponents="3" format="ascii" type="Float32">-0.054772343852049765 0.0 0.0 0.0026216505015957819 -0.019156194138796157 0.0 0.0053103980772326387 0.0077162485167111584 0.0 0.006822178298114147 -0.0027734778513842356 0.0 0.0 0.0 0.0 0.0 0.0 0.0 0.0 0.0 0.0 0.0 0.0 0.0 0.0 0.0 0.0 0.0 0.0 0.0 0.0 0.0 0.0 0.0 0.0 0.0 0.0 0.0 0.0 0.0 0.0 0.0 0.0 0.0 0.0 -0.071855359112689143 0.0 0.0 -0.06891739461833879 0.0 0.0 -0.061831792945843095 -0.081825607179808788 0.0 -0.050951614291739 0.080201125647537591 0.0 -0.037999687736169241 0.0074351368957105476 0.0 -0.027088614222499141 0.0082971415505245245 0.0 -0.013082704901454523 0.00889880571334342 0.0 -0.0037020196050172038 0.0045857096907005127 0.0 0.0060475327446505855 0.14091581349296325 0.0 0.012849280467708002 -0.14091581349296325 0.0 0.016596772212178368 -0.12272944555692648 0.0 0.01823762212638308 0.23264171928827201 0.0 0.01904475974934966 -0.11169955165187609 0.0 0.020034839722392755 -0.084500154851463199 0.0 0.022106134768411306 0.081047640282038758 0.0 0.024918163200000704 0.003135456960180037 0.0 0.027794403252632896 0.043997668280688094 0.0 0.031166266912175222 -0.071042201681809497 0.0 0.033086284448904775 0.013592719495162463 0.0 </DataArray>
<DataArray Name="radii" format="ascii" type="Float32">1 1 2.1999999999999997 1 1 1 1 2.1999999999999997 1 1 1 2.1999999999999997 1 2.1999999999999997 1 1 1 1 2.1999999999999997 2.1999999999999997 2.1999999999999997 2.1999999999999997 2.1999999999999997 2.1999999999999997 1 1 2.1999999999999997 1 1 2.1999999999999997 2.1999999999999997 2.1999999999999997 1 2.1999999999999997 </DataArray>
</PointData>
<CellData/>
</Piece>
</UnstructuredGrid>
</VTKFile>
