<?xml version="1.0" ?>
<VTKFile byte_order="LittleEndian" type="UnstructuredGrid" version="0.1">
<UnstructuredGrid>
<Piece NumberOfCells="0" NumberOfPoints="60">
<Points>
<DataArray NumberOfComponents="3" format="ascii" type="Float32">2.8923363381929668 3.1278838129344684 2.8657100969786806 3.0084794326765656 1 0.93882385740494745 4.8693169191115757 1.1165010005456384 1.1138698355217362 8.8763078410520553 1.1255057403218145 1.1308046446176001 0.97716984288937647 2.8550683908191332 3.9309452707143864 3.5884843271958649 5.2342235464058664 3.7648294602902133 5.6581721067031374 1.1377423704485259 4.0043349901455381 8.895716236274966 1.1381489870633275 5.3837002695199914 1.1291784128056039 3.2047193248112347 6.3209049901397991 4.5814278918011224 1.1356321144419916 5.427545092410754 5.226009153141935 2.9040526700466276 6.6248810485048111 2.9982057816224414 1.1526372663551787 8.881065479214616 5.285794627256557 1.1196383321920131 8.9000000000000004 9.0 2.6026862533066222 9.0 7.2881567126137092 1.1136670111819544 8.8763279705369591 1.1140715198503504 1.1132999004992585 1.1249472405172583 8.8913283806099077 1.161807410730036 2.9472955088546184 6.857322609524962 4.88355970480435 1.186234987390653 2.170484325143625 1.1371204936607961 2.6622097446438566 6.7882096156573226 4.8658599288122266 4.6022253916727127 8.8137190217370343 5.1320984910667153 6.0975498767744662 1.1230233397861955 1.128681181304696 5.0953418652598472 4.1185835973775022 1.1186940619280876 7.3303173148042351 1.1178709162407179 1.1385649211868321 7.2348590729128253 2.923883270772111 5.1059728918680811 8.8158692976013189 5.5782304027356036 5.2223432049623497 8.5559656875846368 4.877302124336925 4.0182983066287932 2.1838757082111386 0.99366044187788771 4.5596829230457194 2.7381266162963254 6.6107127990012327 1 5.4793082692892066 9.0 1 7.4389263121168394 2.909295142931644 4.9145992158419167 1.1889765894588857 4.2356700184752656 1.146847979720607 2.8255272672802541 8.8217326425234752 3.3280647569839572 1.1889792263289578 5.0601249829248411 3.2139622545094393 4.2476274290583005 7.7348655966019759 1.1286220591394462 4.0724991752118003 8.8477105152299647 3.3523427173978515 4.2912741747655012 4.6401357034968562 4.8966913934874956 6.1236670113744474 2.6650421573247343 1.1162077625560838 6.4091017273487463 1.1302609294575903 1.1199404976034435 8.8891718879723793 4.5004712563432454 3.1351483275574759 8.8564371394684542 6.8684994772363037 3.1500612570190598 8.8162087780814495 1.1761480727543039 3.1159085583694632 1.1642645600666777 6.4763786046006979 1.1186212802425102 2.432872963908677 7.1262922827685218 1.1421273820973619 1.0932669404345741 3.013569375138359 3.1994608142713599 5.1073091436510651 7.0124208723385433 3.1567740458121487 2.8599288999748396 8.8151557251622989 2.95950996950423 6.8860787497738336 3.0633828325736561 1.1115495076202446 4.3318633434982727 6.1512045082242448 1.1462511279275005 7.0868234053572863 1.1737315312856953 3.3141012489246777 8.8270516527568628 3.0837593831552415 3.2913134398846458 7.349993472013475 8.8080984278061809 4.7049351013571732 8.8007010331733486 3.6302538497843857 2.801921209233281 0.96141321975905891 0.90775630562386656 1 3.3469952728893326 6.8118009020435606 4.1701957049006699 6.8515468434167346 9.0 1 9.0 5.8266456153098432 2.9086015277680346 0.9569258825436141 1.2878477470284095 4.7656286137613497 4.7748333725475094 6.9685432709770225 2.7296916283624939 5.4748932571892936 7.7264871599764717 1 6.8406744635478436 </DataArray>
</Points>
<Cells>
<DataArray Name="connectivity" format="ascii" type="Int32">0</DataArray>
<DataArray Name="offsets" format="ascii" type="Int32">0</DataArray>
<DataArray Name="types" format="ascii" type="UInt8">1</DataArray>
</Cells>
<PointData>
<DataArray Name="Points" NumberOfComponents="3" format="ascii" type="Float32">2.8923363381929668 3.1278838129344684 2.8657100969786806 3.0084794326765656 1 0.93882385740494745 4.8693169191115757 1.1165010005456384 1.1138698355217362 8.8763078410520553 1.1255057403218145 1.1308046446176001 0.97716984288937647 2.8550683908191332 3.9309452707143864 3.5884843271958649 5.2342235464058664 3.7648294602902133 5.6581721067031374 1.1377423704485259 4.0043349901455381 8.895716236274966 1.1381489870633275 5.3837002695199914 1.1291784128056039 3.2047193248112347 6.3209049901397991 4.5814278918011224 1.1356321144419916 5.427545092410754 5.226009153141935 2.9040526700466276 6.6248810485048111 2.9982057816224414 1.1526372663551787 8.881065479214616 5.285794627256557 1.1196383321920131 8.9000000000000004 9.0 2.6026862533066222 9.0 7.2881567126137092 1.1136670111819544 8.8763279705369591 1.1140715198503504 1.1132999004992585 1.1249472405172583 8.8913283806099077 1.161807410730036 2.9472955088546184 6.857322609524962 4.88355970480435 1.186234987390653 2.170484325143625 1.1371204936607961 2.6622097446438566 6.7882096156573226 4.8658599288122266 4.6022253916727127 8.8137190217370343 5.1320984910667153 6.0975498767744662 1.1230233397861955 1.128681181304696 5.0953418652598472 4.1185835973775022 1.1186940619280876 7.3303173148042351 1.1178709162407179 1.1385649211868321 7.2348590729128253 2.923883270772111 5.1059728918680811 8.8158692976013189 5.5782304027356036 5.2223432049623497 8.5559656875846368 4.877302124336925 4.0182983066287932 2.1838757082111386 0.99366044187788771 4.5596829230457194 2.7381266162963254 6.6107127990012327 1 5.4793082692892066 9.0 1 7.4389263121168394 2.909295142931644 4.9145992158419167 1.1889765894588857 4.2356700184752656 1.146847979720607 2.8255272672802541 8.8217326425234752 3.3280647569839572 1.1889792263289578 5.0601249829248411 3.2139622545094393 4.2476274290583005 7.7348655966019759 1.1286220591394462 4.0724991752118003 8.8477105152299647 3.3523427173978515 4.2912741747655012 4.6401357034968562 4.8966913934874956 6.1236670113744474 2.6650421573247343 1.1162077625560838 6.4091017273487463 1.1302609294575903 1.1199404976034435 8.8891718879723793 4.5004712563432454 3.1351483275574759 8.8564371394684542 6.8684994772363037 3.1500612570190598 8.8162087780814495 1.1761480727543039 3.1159085583694632 1.1642645600666777 6.4763786046006979 1.1186212802425102 2.432872963908677 7.1262922827685218 1.1421273820973619 1.0932669404345741 3.013569375138359 3.1994608142713599 5.1073091436510651 7.0124208723385433 3.1567740458121487 2.8599288999748396 8.8151557251622989 2.95950996950423 6.8860787497738336 3.0633828325736561 1.1115495076202446 4.3318633434982727 6.1512045082242448 1.1462511279275005 7.0868234053572863 1.1737315312856953 3.3141012489246777 8.8270516527568628 3.0837593831552415 3.2913134398846458 7.349993472013475 8.8080984278061809 4.7049351013571732 8.8007010331733486 3.6302538497843857 2.801921209233281 0.96141321975905891 0.90775630562386656 1 3.3469952728893326 6.8118009020435606 4.1701957049006699 6.8515468434167346 9.0 1 9.0 5.8266456153098432 2.9086015277680346 0.9569258825436141 1.2878477470284095 4.7656286137613497 4.7748333725475094 6.9685432709770225 2.7296916283624939 5.4748932571892936 7.7264871599764717 1 6.8406744635478436 </DataArray>
<DataArray Name="forces" NumberOfComponents="3" format="ascii" type="Float32">0.00013546260274011068 0.43195726598176321 0.0011130086435198194 -0.0010788484527904235 -0.39739422497944921 -0.73266508795416885 0.0061433349654552161 -0.5665739966348855 -1.0315224506828846 0.91388715771232765 -0.45873034745635821 -0.82870575009686864 -0.27342127760790319 0.2982726328446077 0.0014603688229444453 0.0092099032687236876 0.42924556766194849 0.00018295781353017126 -0.01609519744634243 -0.31218054376254478 -0.03432116260252769 1.1463283184303157 -0.30731077288112169 -0.0046027386127738823 -0.84818202341238047 0.43258142249068621 0.0029529398293688114 0.0016991260951078613 -0.33745364594009813 0.0010808642787328848 0.0050933978884008524 0.29651967384177408 0.0054792939912054056 -0.00054870542718168328 -0.13379449723207104 0.97086615695881906 -0.0061143845407168329 -0.52900030746249271 1.1976320455572851 0.36556435577764423 0.30000556325126271 0.31694483612658836 0.0055915279713478899 -0.6005147614220514 0.91412823487413208 -1.0291070145325347 -0.60491139660068105 -0.89885589864034932 1.0937779528727631 -0.023969909574910769 0.0060168431056785571 -0.00024630394890731711 0.43013531661162974 -0.16485420208454035 -0.0086335530209019629 -0.31962833945627911 0.001287329714503016 0.00072414372212357969 0.42780107053252864 0.0045362093116973409 0.16430340065967808 0.4297531478676011 0.0047326606780935081 -0.9218971503202672 -0.42070024865761124 0.0042641611085897368 0.0052707584389470319 -0.54030919073993366 -0.0080399863678744798 -0.98360422582374629 -0.30232941252962409 0.002257499898909443 0.00084667216819104066 0.42952771896672959 0.19005579347824769 -0.0044648433337120125 0.42733031377195968 0.0067133253883538621 0.0032629753027902941 0.28996748129711464 0.0036821739446545043 -0.075924579617146701 0.29740027389514195 0.0017542284649036122 -0.034250585623182506 -0.66500459258332245 -0.0064927575568544671 0.96091729805960469 -0.41348184841909974 0.0033109667462636327 0.0069871596208478798 0.42757233401061689 -0.13201989715372325 -0.011023699929010977 -0.20312884917686719 -0.0062924510960287172 0.2602770912075375 0.43077088782499434 -0.13198831715274148 0.0033632749086045521 0.42743165600841626 0.0065323131478542545 -0.016950534262830552 -0.42140831465466821 0.017029307328053994 0.5713964194945419 0.43095723155017113 0.0036601419964657766 0.0013403497221571338 0.42806043359208024 0.0034181091392559097 -0.0010341791675219925 -0.57008590876753951 0.0017912702714781986 -0.83521745708969986 -0.52538147766461318 1.0679511059856408 -0.0026927409113400858 0.42942344075539235 0.67590926787005279 -0.0020765919880431612 0.42813917981192134 0.19412152049670184 -0.28565832417746517 0.43326704623146733 -0.42797908026234133 0.008271776030869097 -0.5411808475297043 -0.00402357544394287 0.0047445231736433779 -0.25966423905466729 -1.2782693245592869 -0.0017529708932334451 0.43307591423610153 -0.00060078093679257448 0.0034404553471702598 0.43130896729375223 0.0021512152445467836 0.18150982128026485 0.43030044746791996 0.003775734933669925 -0.0014099542003609619 -0.62587466264290537 0.002416043971745007 0.017100399981345382 -0.21027693751559368 0.020088461894459869 -0.3145995991997016 0.43226935112383358 0.32397926226905704 0.00099844385526393076 0.43043455470332131 -0.0010367506369780288 0.096989366593127596 0.43000541287324545 0.0083957979340008107 0.0035207541906849158 0.29583366843441672 -0.46212764551427654 -1.104740043854497 -0.50375093093341061 0.0057036085100094017 0.0010359337775546658 0.30243381513423562 0.0066389528656240204 0.67533550015179744 -0.6761109430515243 0.71752989582709381 0.0042645352748309955 0.29923944632879151 -0.51586943399866247 -0.008518029884164606 0.29707211269545003 0.0026031349871696498 0.0037473420777315788 0.29914519873110812 0.013378504750800602 0.0033780095592493842 -0.36899517610546667 -0.036274530671061039 </DataArray>
<DataArray Name="radii" format="ascii" type="Float32">1.2 1 1.2 1.2 1 1.2 1.2 1.2 1.2 1.2 1 1.2 1.2 1 1.2 1.2 1.2 1.2 1.2 1.2 1.2 1.2 1.2 1.2 1.2 1.2 1 1 1 1 1.2 1.2 1.2 1.2 1.2 1.2 1.2 1.2 1.2 1.2 1.2 1.2 1.2 1.2 1.2 1.2 1.2 1.2 1.2 1.2 1.2 1.2 1 1 1 1 1 1 1 1 </DataArray>
</PointData>
<CellData/>
</Piece>
</UnstructuredGrid>
</VTKFile>
