<?xml version="1.0" ?>
<VTKFile byte_order="LittleEndian" type="UnstructuredGrid" version="0.1">
<UnstructuredGrid>
<Piece NumberOfCells="0" NumberOfPoints="50">
<Points>
<DataArray NumberOfComponents="3" format="ascii" type="Float32">1.0 1 2.2326018959752192 3.0644748381565505 4.5255214259404442 2.751103982694322 5.0769381683588435 1 2.0406673242998892 5.92935329529731 4.0390338386246798 2.8171688116882643 11.064662559763857 1.5996783009122724 2.5313064795715907 13.968381095358888 1.6176502694186405 2.3616191835118618 17.231258023105909 3.1768586435779658 2.553330416629533 21.8259179112809 2.2903008181762035 2.7450648803751743 23.551836691126045 1 1.7559878704941141 25.726672887980207 1.6609947733903456 2.6617242945325383 29.921601915329173 1.6911132591282028 2.4811338611731695 32.139535144567446 1 1.9277304187271189 34.727099159759284 1.7042549308552593 2.3912940209560012 38.227914148956309 3.0232143610120747 2.629057231248789 41.110844516765731 1 1.9931059951860872 44.825578384605365 2.4081728425190998 2.5129119151788943 47.0 1 2.0 50.0 1 2.0 53.0 1 2.0 56.0 1 2.0 59.0 1 2.0 62.0 1 2.0 64.561641949809172 1 1.9707521698940831 67.704274888185878 2.2427093528872897 2.4025821998057593 71.041424639366554 1.5996783009122724 2.3512409113357871 75.679076767762282 2.2997016234375423 2.6155719749923305 77.520567062818628 1 1.9397342652967713 80.0 1 2.0 83.0 1 2.0 86.0 1 2.0 88.570515450982455 2.8813950128667871 2.4300901809694015 92.0 1 2.0 94.339693205849827 1.5996783009122724 2.3895062082400154 98.0 1 2.0 2.9209020418357854 1.8279275228763761 1.4702661274446849 7.2971413366508147 1.7633403911239005 1.5800592885707476 9.2690997470343781 3.7370149253949259 1.7252638527067945 14.982834809215383 3.6735446041341584 1.8448203287753984 19.389460323069443 1.4577569335142202 1.4885513826101056 21.66949411134841 5.0168298458863729 1.6847597905972804 25.89076135775241 4.3689293168770407 1.641831307825349 29.203395416620147 3.8078520419130091 1.757201769320897 34.31646844095939 3.9518722783683291 1.8433703536622936 39.059688321270727 1.0929646914374882 1.5808127349433427 42.666535285767395 1.8587173052012118 1.6832787997714722 65.475831662438353 2.7238529931212279 1.8356215919915275 70.908535693583957 3.8937093505194702 1.8501129408912773 73.570052953391539 2.6194857927685296 1.6461344993227551 89.802802999381669 1 1.7699098190305984 96.35717767799359 3.5767897916492881 1.8104937917599848 </DataArray>
</Points>
<Cells>
<DataArray Name="connectivity" format="ascii" type="Int32">0</DataArray>
<DataArray Name="offsets" format="ascii" type="Int32">0</DataArray>
<DataArray Name="types" format="ascii" type="UInt8">1</DataArray>
</Cells>
<PointData>
<DataArray Name="Points" NumberOfComponents="3" format="ascii" type="Float32">1.0 1 2.2326018959752192 3.0644748381565505 4.5255214259404442 2.751103982694322 5.0769381683588435 1 2.0406673242998892 5.92935329529731 4.0390338386246798 2.8171688116882643 11.064662559763857 1.5996783009122724 2.5313064795715907 13.968381095358888 1.6176502694186405 2.3616191835118618 17.231258023105909 3.1768586435779658 2.553330416629533 21.8259179112809 2.2903008181762035 2.7450648803751743 23.551836691126045 1 1.7559878704941141 25.726672887980207 1.6609947733903456 2.6617242945325383 29.921601915329173 1.6911132591282028 2.4811338611731695 32.139535144567446 1 1.9277304187271189 34.727099159759284 1.7042549308552593 2.3912940209560012 38.227914148956309 3.0232143610120747 2.629057231248789 41.110844516765731 1 1.9931059951860872 44.825578384605365 2.4081728425190998 2.5129119151788943 47.0 1 2.0 50.0 1 2.0 53.0 1 2.0 56.0 1 2.0 59.0 1 2.0 62.0 1 2.0 64.561641949809172 1 1.9707521698940831 67.704274888185878 2.2427093528872897 2.4025821998057593 71.041424639366554 1.5996783009122724 2.3512409113357871 75.679076767762282 2.2997016234375423 2.6155719749923305 77.520567062818628 1 1.9397342652967713 80.0 1 2.0 83.0 1 2.0 86.0 1 2.0 88.570515450982455 2.8813950128667871 2.4300901809694015 92.0 1 2.0 94.339693205849827 1.5996783009122724 2.3895062082400154 98.0 1 2.0 2.9209020418357854 1.8279275228763761 1.4702661274446849 7.2971413366508147 1.7633403911239005 1.5800592885707476 9.2690997470343781 3.7370149253949259 1.7252638527067945 14.982834809215383 3.6735446041341584 1.8448203287753984 19.389460323069443 1.4577569335142202 1.4885513826101056 21.66949411134841 5.0168298458863729 1.6847597905972804 25.89076135775241 4.3689293168770407 1.641831307825349 29.203395416620147 3.8078520419130091 1.757201769320897 34.31646844095939 3.9518722783683291 1.8433703536622936 39.059688321270727 1.0929646914374882 1.5808127349433427 42.666535285767395 1.8587173052012118 1.6832787997714722 65.475831662438353 2.7238529931212279 1.8356215919915275 70.908535693583957 3.8937093505194702 1.8501129408912773 73.570052953391539 2.6194857927685296 1.6461344993227551 89.802802999381669 1 1.7699098190305984 96.35717767799359 3.5767897916492881 1.8104937917599848 </DataArray>
<DataArray Name="forces" NumberOfComponents="3" format="ascii" type="Float32">0.0 0.0 0.0 0.00037235012490941021 0.027842411113175144 0.013515048115148526 0.0060719316824722896 -0.038295525845035545 0.021454438831187941 0.0 0.0 0.0 0.0 0.0 0.0 0.0 0.0 0.0 0.0 0.0 0.0 0.0007340585260007538 -0.012794931973542169 0.0049757517184045178 0.0 0.0 0.0 0.0 0.0 0.0 0.0 0.0 0.0 0.0 0.0 0.0 0.0 0.0 0.0 0.0 0.0 0.0 0.0 0.0 0.0 0.0094023185288944714 0.0023936526182408049 0.0036129314960771314 0.0 0.0 0.0 0.0 0.0 0.0 0.0 0.0 0.0 0.0 0.0 0.0 0.0 0.0 0.0 0.0 0.0 0.0 0.0 0.0 0.0 0.0 0.0 0.0 0.0 0.0 0.0 0.0 0.0 0.0 0.0 0.0 0.0 0.0 0.0 0.0 0.0 0.0 0.0 0.0 0.0 0.0 0.0 0.0 0.0 0.0 0.0 0.0 0.0 0.0 0.0 0.0 0.0 0.0 -0.047052962569802112 -0.030619085962837522 -0.056292398181917842 0.043390671282024923 0.013124757371830555 -0.0086524085475640378 0.002865042065833056 0.002770963924487889 0.00017321110575131931 0.0 0.0 0.0 0.026782535256191328 -0.061580634006643743 -0.048358303220010751 -0.0007340585260007538 0.012794931973542169 -0.0049757517184045178 0.0 0.0 0.0 0.0 0.0 0.0 0.0 0.0 0.0 0.0 0.0 0.0 -0.0094023185288944714 -0.0023936526182408049 -0.0036129314960771314 0.0 0.0 0.0 0.0 0.0 0.0 0.0 0.0 0.0 0.0 0.0 0.0 0.0 0.0 0.0 </DataArray>
<DataArray Name="radii" format="ascii" type="Float32">1 1.5999999999999999 1 1.5999999999999999 1.5999999999999999 1.5999999999999999 1.5999999999999999 1.5999999999999999 1 1.5999999999999999 1.5999999999999999 1 1.5999999999999999 1.5999999999999999 1 1.5999999999999999 1 1 1 1 1 1 1 1.5999999999999999 1.5999999999999999 1.5999999999999999 1 1 1 1 1.5999999999999999 1 1.5999999999999999 1 1.5999999999999999 1.5999999999999999 1.5999999999999999 1 1.5999999999999999 1.5999999999999999 1.5999999999999999 1 1 1 1 1 1 1 1 1.5999999999999999 </DataArray>
</PointData>
<CellData/>
</Piece>
</UnstructuredGrid>
</VTKFile>
