<?xml version="1.0" ?>
<VTKFile byte_order="LittleEndian" type="UnstructuredGrid" version="0.1">
<UnstructuredGrid>
<Piece NumberOfCells="0" NumberOfPoints="40">
<Points>
<DataArray NumberOfComponents="3" format="ascii" type="Float32">1.3166530565712089 1.3730352434996782 1.285471345185941 3.4995294168824977 1.1085458894009732 1.1031363762142368 5.4443031628361496 1.138139913061808 1.0843804736253804 9.0 1 0.92654940716187317 1.0894505353880737 1.1403449751931165 3.3164443071776186 5.267292858064347 1.3535141523305749 2.942269440183412 7.2881021437933819 1 3.2502005545943859 8.8348944716073721 2.9338748305149065 5.6675061901557227 1.3274254409251638 1.3629778641960519 5.2162936216433344 5.5234769893948075 1.3378645358619257 7.0881163265039158 7.4172892189174862 1 6.9520660338361857 0.92717829810399244 1 7.0825283794366181 1.1482139800601008 1.1684469299294555 8.8811477627029181 9.0 1 6.0583111055301835 3.1211569858317674 1.1872920757641605 9.0 6.3987910436816975 3.4646514932752379 1.371786695477788 3.4226662232749292 3.6562860390350118 3.7982593796303714 9.0 2.8754355284975075 9.0 5.3133692171907247 2.6832974514599406 9.0 9.0 1 9.0 2.9592743937357291 1.369304262281507 7.2318227934616681 9.0 2.8130257771947851 3.0115110171166815 6.9544658684915657 3.1896017340392162 5.0195219602899126 7.0238473542068851 3.5458523932651014 7.3294885595045427 6.3242278043124562 1 9.0 3.9108023005573367 3.2335016512682691 1.1989221493616193 3.1036064155168424 1.315708672127611 3.1453803736400601 4.3160951283170217 3.5851718694629708 6.4181615433102168 5.8260803707122024 1.3475411367168388 4.9200223303401112 3.7112485029995583 1.3084479740450359 5.2040666351237928 7.3417589501489013 1.157818345811745 1.1825881932958515 8.8863643671524244 1.1544324189801263 4.2540377048872333 7.2707086859429291 2.5750751332212185 3.1481302650244518 7.4594417167034663 1 5.239329971376705 0.99639917480526263 2.8935795247044664 6.8626116741927756 9.0 1 7.574424751740656 4.6198099985993286 1 8.7528113062962269 9.0 1 2.5252721771043238 5.7017370968778769 3.4668104740684318 3.6812748620609139 7.5529486000318871 1.8287817432014473 8.5643177724184838 </DataArray>
</Points>
<Cells>
<DataArray Name="connectivity" format="ascii" type="Int32">0</DataArray>
<DataArray Name="offsets" format="ascii" type="Int32">0</DataArray>
<DataArray Name="types" format="ascii" type="UInt8">1</DataArray>
</Cells>
<PointData>
<DataArray Name="Points" NumberOfComponents="3" format="ascii" type="Float32">1.3166530565712089 1.3730352434996782 1.285471345185941 3.4995294168824977 1.1085458894009732 1.1031363762142368 5.4443031628361496 1.138139913061808 1.0843804736253804 9.0 1 0.92654940716187317 1.0894505353880737 1.1403449751931165 3.3164443071776186 5.267292858064347 1.3535141523305749 2.942269440183412 7.2881021437933819 1 3.2502005545943859 8.8348944716073721 2.9338748305149065 5.6675061901557227 1.3274254409251638 1.3629778641960519 5.2162936216433344 5.5234769893948075 1.3378645358619257 7.0881163265039158 7.4172892189174862 1 6.9520660338361857 0.92717829810399244 1 7.0825283794366181 1.1482139800601008 1.1684469299294555 8.8811477627029181 9.0 1 6.0583111055301835 3.1211569858317674 1.1872920757641605 9.0 6.3987910436816975 3.4646514932752379 1.371786695477788 3.4226662232749292 3.6562860390350118 3.7982593796303714 9.0 2.8754355284975075 9.0 5.3133692171907247 2.6832974514599406 9.0 9.0 1 9.0 2.9592743937357291 1.369304262281507 7.2318227934616681 9.0 2.8130257771947851 3.0115110171166815 6.9544658684915657 3.1896017340392162 5.0195219602899126 7.0238473542068851 3.5458523932651014 7.3294885595045427 6.3242278043124562 1 9.0 3.9108023005573367 3.2335016512682691 1.1989221493616193 3.1036064155168424 1.315708672127611 3.1453803736400601 4.3160951283170217 3.5851718694629708 6.4181615433102168 5.8260803707122024 1.3475411367168388 4.9200223303401112 3.7112485029995583 1.3084479740450359 5.2040666351237928 7.3417589501489013 1.157818345811745 1.1825881932958515 8.8863643671524244 1.1544324189801263 4.2540377048872333 7.2707086859429291 2.5750751332212185 3.1481302650244518 7.4594417167034663 1 5.239329971376705 0.99639917480526263 2.8935795247044664 6.8626116741927756 9.0 1 7.574424751740656 4.6198099985993286 1 8.7528113062962269 9.0 1 2.5252721771043238 5.7017370968778769 3.4668104740684318 3.6812748620609139 7.5529486000318871 1.8287817432014473 8.5643177724184838 </DataArray>
<DataArray Name="forces" NumberOfComponents="3" format="ascii" type="Float32">-0.60203993020924906 0.16104646824273869 -0.8272747687517128 0.004530276517621043 -0.39918093162436818 -0.69967495992962081 -0.014461905861031799 -0.18541443694058993 -0.83515446068964505 0.51912221567839834 -0.04956243612407616 -0.53055562648046151 -0.79853188637321304 -0.1694866128713805 0.032958348766039341 0.047583799655981238 0.020039781235719811 -0.023257490797000818 0.020740478301150195 -0.54663641474593516 -0.028727165573793151 0.25205321739409559 0.26168611059728908 0.053140591370022125 -0.52422777228430806 0.088399005900988079 0.052578163148257792 -0.054526977521466125 -0.093002084716290331 0.056209301550198099 -0.0062217290165788482 -0.18071529630800859 0.076404336349714191 -0.52601295888730371 -0.29629624060990611 0.026773988362614912 -0.37406592908915209 0.033502221178227681 0.58615458929265407 0.43150346490846481 -0.24152259242585797 -0.032896610666983961 -0.1512101722343443 0.013244083081299825 0.72232994449713994 0.0074430485927487518 0.33203533973657812 -0.20379314689610198 -0.079417917444469993 0.38938524363587251 0.045212186482570749 0.12283059456924096 0.21832242642867616 0.037883569582872305 0.031110952889255462 0.23389702785856065 0.096245253467037731 0.2295244289470548 -0.25996035322622368 0.64712809864759935 0.076795416803427358 0.13409647368032471 0.026287039425205216 0.25362628022128902 0.26839674957573556 -0.060129839375843333 0.0091783071285125029 0.19844808279955911 -0.018257966279576224 -0.016583891961711485 0.34778291705345749 0.016153163511791482 0.042477171586936535 -0.33250687602265272 0.43901839069513787 -0.029926798633562596 0.31551255729137023 -0.0077856379179770266 0.013772719677277112 -0.25304052293122709 0.013092969357819562 -0.0057090634815043437 0.39943621198024726 0.012595824771658742 0.044922426403485982 -0.023105099131785684 -0.021169815512631224 0.037190540054928278 -0.30548671936119665 -0.016429692575974236 -0.0035966696363385134 -0.043271224580061163 -0.12577069370202437 0.62383568531740741 -0.067728787983606986 -0.044203727469997733 0.017254555021388965 0.26314378198387578 0.16606758571963062 0.019669507185672452 -0.22348090004154275 0.035204652437250961 -0.026009838630585265 0.19011264303485748 0.095382902580432319 0.3248666744001667 -0.028736188303926023 -0.013819096599437863 -0.0098553659843037544 -0.34361927252332686 0.34284478991522455 0.22925839753948854 -0.18489746809892951 -0.011810028090596669 -0.057596314577999463 0.22117987028756886 -0.01146268038933556 0.023931004675235512 0.22048807365271586 0.084086651045359784 </DataArray>
<DataArray Name="radii" format="ascii" type="Float32">1.4 1.2 1.2 1 1.2 1.4 1 1.2 1.4 1.4 1 1 1.2 1 1 1.4 1.4 1 1 1 1.4 1 1 1.4 1 1.2 1.4 1.4 1.4 1.4 1.2 1.2 1 1 1 1 1 1 1 1 </DataArray>
</PointData>
<CellData/>
</Piece>
</UnstructuredGrid>
</VTKFile>
