<?xml version="1.0" ?>
<VTKFile byte_order="LittleEndian" type="UnstructuredGrid" version="0.1">
<UnstructuredGrid>
<Piece NumberOfCells="0" NumberOfPoints="26">
<Points>
<DataArray NumberOfComponents="3" format="ascii" type="Float32">1.8237720686519321 2.9747298599823671 0.99794434527662346 3.8265873825852359 1.3549744078214709 1.3193052227049014 6.3271121791483251 1 0.95801944347224788 9.0 1 0.97121017336458659 1.3078520470421207 1.3670228918870189 3.5203461780727303 4.7721444371171362 2.8436785712457215 4.0809514170541172 5.874698119965295 1 3.7795652562593491 9.0 1 4.1533017864740582 2.9911468106963475 2.6137928129074655 5.2333695396213988 4.4787782691877958 1 5.5424159358237226 7.2891123352837939 1.3675218225704464 5.9441117124842968 2.1761534935282394 1.6682707643561259 9.0 4.0971893403463362 1 9.0 8.6999999999999993 1.3643539737057373 8.6263902101405687 6.2385298410932304 1 9.0 0.98683685612466887 1 0.97822628656732125 7.6403676657108477 1 2.6103752783409959 7.8465526936982606 2.799945256230425 1.0 3.7560450621897745 1 3.7648220168549704 6.8965584907331703 2.9047128876170722 3.8046782197481757 9.0 3.1323204359109273 4.157395883299988 2.1376617032414238 1 6.1831840646306011 5.2089083180517335 1 7.3097816941537728 0.84309015420125277 1 7.7661021984286531 3.4369259398962266 2.2941927617791902 7.3660244966953501 5.1937382501152749 2.875067743582902 9.0 </DataArray>
</Points>
<Cells>
<DataArray Name="connectivity" format="ascii" type="Int32">0</DataArray>
<DataArray Name="offsets" format="ascii" type="Int32">0</DataArray>
<DataArray Name="types" format="ascii" type="UInt8">1</DataArray>
</Cells>
<PointData>
<DataArray Name="Points" NumberOfComponents="3" format="ascii" type="Float32">1.8237720686519321 2.9747298599823671 0.99794434527662346 3.8265873825852359 1.3549744078214709 1.3193052227049014 6.3271121791483251 1 0.95801944347224788 9.0 1 0.97121017336458659 1.3078520470421207 1.3670228918870189 3.5203461780727303 4.7721444371171362 2.8436785712457215 4.0809514170541172 5.874698119965295 1 3.7795652562593491 9.0 1 4.1533017864740582 2.9911468106963475 2.6137928129074655 5.2333695396213988 4.4787782691877958 1 5.5424159358237226 7.2891123352837939 1.3675218225704464 5.9441117124842968 2.1761534935282394 1.6682707643561259 9.0 4.0971893403463362 1 9.0 8.6999999999999993 1.3643539737057373 8.6263902101405687 6.2385298410932304 1 9.0 0.98683685612466887 1 0.97822628656732125 7.6403676657108477 1 2.6103752783409959 7.8465526936982606 2.799945256230425 1.0 3.7560450621897745 1 3.7648220168549704 6.8965584907331703 2.9047128876170722 3.8046782197481757 9.0 3.1323204359109273 4.157395883299988 2.1376617032414238 1 6.1831840646306011 5.2089083180517335 1 7.3097816941537728 0.84309015420125277 1 7.7661021984286531 3.4369259398962266 2.2941927617791902 7.3660244966953501 5.1937382501152749 2.875067743582902 9.0 </DataArray>
<DataArray Name="forces" NumberOfComponents="3" format="ascii" type="Float32">-0.013295159636193099 0.08412727581584678 -0.0053459800816710833 -0.013076490593135967 0.011012541864880026 -0.20985658107305866 0.00015623758523518327 -0.012701458495221534 -0.10917554220691121 0.09889518069787237 -0.056289534947084906 -0.074871445091167235 -0.23964195712324249 0.042346089807674271 0.0028911457335282394 0.019193405981082719 0.10765782580734563 -0.010085510968823076 -0.021107872759900757 -0.063512398728784974 0.019386230794398909 0.18727164749059075 -0.091767270474246959 0.011871942256843539 0.011447741843011072 0.10914412733466305 -0.027059913399020332 -0.0055590465230928171 0.0 -0.012499707709698715 0.00040530154142463803 0.043643619721334792 0.0062211410039769571 0.0035659437380017242 0.132897061351612 0.21488621479112407 -0.0029493636209687434 -0.087069194184771798 0.15813022439628704 0.26006216028779544 0.035405243529120112 0.068630950596053245 -0.0078964034395272963 -0.086184836067317805 0.22499140272158796 -0.034232356323976858 -0.068906326254714517 -0.056625189527898342 -0.0059936586340989251 0.0 0.014140453077984755 -0.035574924769288502 0.056289534947084906 0.0 0.020061495564748594 -0.15380157077690512 -0.010192003625612178 0.025767913256581849 0.027730090343044658 -0.014682528606342286 0.047824723176924148 0.076790950070093317 0.0079742001606732879 0.032714827218440275 -0.12272147459908114 -0.068062760265465511 -0.0043982091346874419 -0.018812579777865369 -0.0060475361325455224 -0.4080631346884705 -0.13916988921187209 -0.048366254890153532 0.035540862214007131 0.033074911826967042 -0.036960549479942664 -0.013415210111755576 0.076082050559066597 0.0 </DataArray>
<DataArray Name="radii" format="ascii" type="Float32">1 1.4 1 1 1.4 1 1 1 1 1 1.4 1 1 1.4 1 1 1 1 1 1 1 1 1 1 1 1 </DataArray>
</PointData>
<CellData/>
</Piece>
</UnstructuredGrid>
</VTKFile>
