<?xml version="1.0" ?>
<VTKFile byte_order="LittleEndian" type="UnstructuredGrid" version="0.1">
<UnstructuredGrid>
<Piece NumberOfCells="0" NumberOfPoints="43">
<Points>
<DataArray NumberOfComponents="3" format="ascii" type="Float32">0.98199824127368418 1 0.92624120355482797 2.6362273786299815 1 2.3596210483999394 6.7599759461258655 1.3273517963669335 1.3361118494409809 8.6838741335711589 1.3540620801806815 1.3136978311865737 0.95989055550786995 1 3.4471755412950489 4.6951209411111048 1.3293609943673481 1.35725103298087 8.6576902444040247 1.328810787177924 3.2411442606517737 8.685057735507872 1.3405335445359352 5.1590336890980382 1.0903658635829585 1 7.7059842812598136 6.3110552841862617 3.3127326130332557 5.6482627078239265 8.8532939108996018 1.1309526165035484 7.2510655266940667 0.9873693445157905 1 9.0 3.0781174325510983 1 9.0 9.0 1 9.0 5.2416144980143713 1.3695281923748333 8.6999999999999993 2.8062705929470013 1 5.3041977334555526 1.3824021476674773 2.9430899987719523 6.0561151268573576 4.7050521299380144 1.3268883128091562 5.2121962915960687 7.2022828756874535 1 8.1166776658014701 3.0379639384093702 3.5687828335029481 7.663196071146424 3.1225628465758333 3.2123095794777026 1.3752555612956712 6.9769297523308698 1.3152389520596477 5.8872267101734925 4.2376571641152099 1 3.2643285163070557 5.5535157953939471 1 6.9527697503353982 0.97444039127508164 1 4.8422129952055943 7.6928289724557244 2.560080951673998 8.8558447463664169 6.0007091325726076 3.592562826500509 2.1525916112154166 6.2872760925882645 1.3435026322485344 3.5956299985015567 4.4966786929901597 3.7472954086143901 4.4473388530151405 1.3753583276354573 2.9740816919152842 3.341063093277989 7.9189930171590683 3.6210672416276193 4.1083051675854554 8.8094845989659376 3.2068467697119822 7.0083466704588231 2.7655573455497673 1 0.93390005730387637 0.96704198837427446 1 2.1734514318607099 0.95594440514383672 1 6.2140713969730559 4.8811169051439229 3.3551995306400646 6.9653314240180872 2.1505391394480817 2.4672823877496226 9.0 2.4823786056914328 1 6.83337419588588 6.5111057184115362 2.6837211326772601 7.3791872380823005 3.4683845960180175 2.4897650924119787 6.2602771080050159 3.4794651088978155 2.3338716045747616 3.3964543746503524 3.823084113161729 1 7.3098362861457336 2.5471079804317447 1 3.9177680940944999 </DataArray>
</Points>
<Cells>
<DataArray Name="connectivity" format="ascii" type="Int32">0</DataArray>
<DataArray Name="offsets" format="ascii" type="Int32">0</DataArray>
<DataArray Name="types" format="ascii" type="UInt8">1</DataArray>
</Cells>
<PointData>
<DataArray Name="Points" NumberOfComponents="3" format="ascii" type="Float32">0.98199824127368418 1 0.92624120355482797 2.6362273786299815 1 2.3596210483999394 6.7599759461258655 1.3273517963669335 1.3361118494409809 8.6838741335711589 1.3540620801806815 1.3136978311865737 0.95989055550786995 1 3.4471755412950489 4.6951209411111048 1.3293609943673481 1.35725103298087 8.6576902444040247 1.328810787177924 3.2411442606517737 8.685057735507872 1.3405335445359352 5.1590336890980382 1.0903658635829585 1 7.7059842812598136 6.3110552841862617 3.3127326130332557 5.6482627078239265 8.8532939108996018 1.1309526165035484 7.2510655266940667 0.9873693445157905 1 9.0 3.0781174325510983 1 9.0 9.0 1 9.0 5.2416144980143713 1.3695281923748333 8.6999999999999993 2.8062705929470013 1 5.3041977334555526 1.3824021476674773 2.9430899987719523 6.0561151268573576 4.7050521299380144 1.3268883128091562 5.2121962915960687 7.2022828756874535 1 8.1166776658014701 3.0379639384093702 3.5687828335029481 7.663196071146424 3.1225628465758333 3.2123095794777026 1.3752555612956712 6.9769297523308698 1.3152389520596477 5.8872267101734925 4.2376571641152099 1 3.2643285163070557 5.5535157953939471 1 6.9527697503353982 0.97444039127508164 1 4.8422129952055943 7.6928289724557244 2.560080951673998 8.8558447463664169 6.0007091325726076 3.592562826500509 2.1525916112154166 6.2872760925882645 1.3435026322485344 3.5956299985015567 4.4966786929901597 3.7472954086143901 4.4473388530151405 1.3753583276354573 2.9740816919152842 3.341063093277989 7.9189930171590683 3.6210672416276193 4.1083051675854554 8.8094845989659376 3.2068467697119822 7.0083466704588231 2.7655573455497673 1 0.93390005730387637 0.96704198837427446 1 2.1734514318607099 0.95594440514383672 1 6.2140713969730559 4.8811169051439229 3.3551995306400646 6.9653314240180872 2.1505391394480817 2.4672823877496226 9.0 2.4823786056914328 1 6.83337419588588 6.5111057184115362 2.6837211326772601 7.3791872380823005 3.4683845960180175 2.4897650924119787 6.2602771080050159 3.4794651088978155 2.3338716045747616 3.3964543746503524 3.823084113161729 1 7.3098362861457336 2.5471079804317447 1 3.9177680940944999 </DataArray>
<DataArray Name="forces" NumberOfComponents="3" format="ascii" type="Float32">-0.20003731746507827 0.0 -0.81961501676923021 0.030434145473744414 -0.089620517399300478 0.062431065425994969 -0.023324584849669927 -0.25989010396745454 -0.70993142669714859 0.93201764001845178 0.036917202699884237 -0.95899820697070692 -0.44570010092909484 -0.37767830148720233 0.053671239991929034 -0.051312470440034508 -0.23756369773295721 -0.47503073543636726 0.64105968255289369 -0.24367765425774379 0.039848720302843726 0.94516994141111876 -0.11341321894106722 0.10947380365741902 -0.18518240419805568 0.0 -0.0060143312988978903 -0.023918393819135943 0.25806747994936274 -0.0081860737644446901 0.59220719128930144 -0.36510173460195133 0.11948361401765856 -0.14035308878978286 -0.10435378764508819 0.6997134615186601 -0.10281225050547334 -0.25451773487607104 0.17239284385668749 0.14802824694383282 -0.16554053270861324 0.42372505523488008 -0.097360251872212922 0.20877816595173548 1.111209857360518 -0.1998635317656417 -0.16747286774888348 0.137806051995224 -0.19554906980273967 0.53643392674573365 0.029964867765855448 -0.086992662760347811 -0.26504037894872134 0.0022550056197733481 -0.085830072862381104 -0.5154802394543877 0.078093814690563784 -0.026152474166183215 0.13833454741833956 0.13213701614724244 -0.16073781311418373 0.49980247250564153 -0.27496264203103338 -0.0085890639797416152 -0.39448922391674546 0.048258261065837138 0.070725216594907936 -0.60833162219591952 0.0048042642593424667 0.074210987333458989 -0.38408661054684001 0.011335510449496773 -0.28402089165407207 -0.062088325557425737 0.011642201077024392 0.11319197796800656 0.44243538587401876 0.6205523264415993 -0.069885897864536306 0.52921009590908963 0.0019325273206171681 0.027183973732986959 -0.080420423604986857 0.036373181888755261 -0.019834715804683656 0.60048288350046941 0.033566428789493979 -0.27382069233328016 0.51614387812957641 0.050913473267458612 0.000206759813580773 0.52716269204332755 -0.056090630590134097 0.1053937986406117 0.44446273115459856 -0.20805470061673456 -0.10538473344898135 -0.19387602778704671 -0.73450907894897988 -0.36623267397508752 -0.05993972490355727 0.024980452823955605 -0.48955011276049964 -0.39909660555538423 0.0091693082321352426 -0.040839797228962416 0.16667912780476607 0.068808529037597987 -0.077108991846237596 0.30571483595977628 0.026898373523103015 -0.0081577886865659144 -0.14321466027874474 0.23818799530060372 -0.00017615128639741906 0.32084082081425042 0.057510512114514384 -0.056247982180636397 0.29147877539437611 -0.014057558420091029 0.032150747564687471 0.31709164992325684 -0.010856192135397263 0.052037573187719774 -0.21922252942257217 -0.024149940607686479 0.08798155832087759 -0.26634562460755801 0.030048007391313768 </DataArray>
<DataArray Name="radii" format="ascii" type="Float32">1 1 1.4 1.4 1 1.4 1.4 1.4 1 1 1.2 1 1 1 1.4 1 1.4 1.4 1 1 1.4 1.4 1 1 1 1.2 1.4 1.4 1.4 1.4 1.4 1.2 1 1 1 1 1 1 1 1 1 1 1 </DataArray>
</PointData>
<CellData/>
</Piece>
</UnstructuredGrid>
</VTKFile>
