<?xml version="1.0" ?>
<VTKFile byte_order="LittleEndian" type="UnstructuredGrid" version="0.1">
<UnstructuredGrid>
<Piece NumberOfCells="0" NumberOfPoints="75">
<Points>
<DataArray NumberOfComponents="3" format="ascii" type="Float32">0.96301948465186338 1 2 2.8382703491916113 1 2 5.0551694335897102 1.3376076117132072 2.1999999999999997 9.9908054671936135 1 2 11.948725111557529 1 2 13.922170932668028 1 2 15.909581305450331 1 2 18.524001159746451 1.3313335428834363 2.1999999999999997 23.734470911640784 1 2 25.683864132251845 1 2 27.588791335723567 1 2 29.833655030022751 1.2950264399533071 2.1999999999999997 32.506174672530598 1 2 39.673732652319082 1.3671142602787605 2.1999999999999997 41.689731450188447 1 2 43.418271305086364 1 2 45.174952498659337 1 2 46.943549375129045 1 2 47.299525416984274 3.2392420509568689 2.1999999999999997 54.08744092060769 1.319851723937109 2.1999999999999997 58.7499286114585 1.2827509300902791 2.1999999999999997 63.866821130887416 1.2928935063220288 2.1999999999999997 66.425677782086737 1.3272651712434147 2.1999999999999997 68.989460843100744 1.2068399578698756 2.1999999999999997 71.896713177399391 1 2 74.221074996446774 1 2 78.091608013186203 3.5265382628358712 2.1999999999999997 81.499394110802015 1 2 83.424079168932053 1 2 82.586013624769834 4.8240450375237467 2.1999999999999997 88.072503112322863 1.914202687334525 2.1999999999999997 93.13208908126218 1.3166999557898829 2.1999999999999997 97.751684058102654 1 2 100.01397404041916 1.3382164784277906 2.1999999999999997 8.0483672075866348 1 2 21.244859265527953 1.3120790223854946 2.1999999999999997 31.786136537363081 3.1157944521916798 2.1999999999999997 34.712156093597216 1.3177537383477462 2.1999999999999997 50.369426687855601 3.2392043962954977 2 51.608058491019584 1.2787121086580444 2.1999999999999997 59.462583971756715 3.8477510492533984 2.1999999999999997 61.917273892825378 2.9216215136997916 2.1999999999999997 66.287588433361478 5.170271794277487 2 73.145704564569911 2.8299519033379799 2.1999999999999997 75.492943629387554 3.7060532377003796 2.1999999999999997 85.737902702167091 1.2245779697453349 2.1999999999999997 90.280138993576571 3.4664248064147425 2.1999999999999997 95.758084315244588 3.1358411102391228 2.1999999999999997 103.52227308180514 1 2 7.150842439596242 3.0381120426057624 2 17.273096947162085 3.3122796015500713 2 29.218495889053525 3.5760518966129848 2 41.935670374572098 3.1517097031218166 2 49.102363594030841 1.2911096676774465 2 55.040462750803606 3.8188185986282241 2 56.424723772148035 1.9330598308613274 2 65.142399908353681 3.3403829630301378 2 67.955358949277937 3.6472908062719394 2 70.648517041122631 2.9900961779882955 2 79.138950387577481 1.197571563625496 2 80.786156483793846 3.1159233750674495 2 90.540209596626255 1.1755003465305183 2 93.434151414465475 3.6071761063074375 2 102.24530165435095 2.8548156504490367 2 22.58944462213308 3.621370961960265 2 34.053083398519085 3.508766304942355 2 37.213222389111003 1.3507398271917119 2 52.703758948831847 3.7467161463999648 2 57.163126836152998 4.1909492744888874 2 60.873986172757725 1 2 71.953479407242526 4.8465509219886602 2 76.475954377193517 1.2711436383578663 2 84.406162922627914 3.1673721884442929 2 91.230327737170498 5.7939465078107828 2 95.815963387035026 1 2 </DataArray>
</Points>
<Cells>
<DataArray Name="connectivity" format="ascii" type="Int32">0</DataArray>
<DataArray Name="offsets" format="ascii" type="Int32">0</DataArray>
<DataArray Name="types" format="ascii" type="UInt8">1</DataArray>
</Cells>
<PointData>
<DataArray Name="Points" NumberOfComponents="3" format="ascii" type="Float32">0.96301948465186338 1 2 2.8382703491916113 1 2 5.0551694335897102 1.3376076117132072 2.1999999999999997 9.9908054671936135 1 2 11.948725111557529 1 2 13.922170932668028 1 2 15.909581305450331 1 2 18.524001159746451 1.3313335428834363 2.1999999999999997 23.734470911640784 1 2 25.683864132251845 1 2 27.588791335723567 1 2 29.833655030022751 1.2950264399533071 2.1999999999999997 32.506174672530598 1 2 39.673732652319082 1.3671142602787605 2.1999999999999997 41.689731450188447 1 2 43.418271305086364 1 2 45.174952498659337 1 2 46.943549375129045 1 2 47.299525416984274 3.2392420509568689 2.1999999999999997 54.08744092060769 1.319851723937109 2.1999999999999997 58.7499286114585 1.2827509300902791 2.1999999999999997 63.866821130887416 1.2928935063220288 2.1999999999999997 66.425677782086737 1.3272651712434147 2.1999999999999997 68.989460843100744 1.2068399578698756 2.1999999999999997 71.896713177399391 1 2 74.221074996446774 1 2 78.091608013186203 3.5265382628358712 2.1999999999999997 81.499394110802015 1 2 83.424079168932053 1 2 82.586013624769834 4.8240450375237467 2.1999999999999997 88.072503112322863 1.914202687334525 2.1999999999999997 93.13208908126218 1.3166999557898829 2.1999999999999997 97.751684058102654 1 2 100.01397404041916 1.3382164784277906 2.1999999999999997 8.0483672075866348 1 2 21.244859265527953 1.3120790223854946 2.1999999999999997 31.786136537363081 3.1157944521916798 2.1999999999999997 34.712156093597216 1.3177537383477462 2.1999999999999997 50.369426687855601 3.2392043962954977 2 51.608058491019584 1.2787121086580444 2.1999999999999997 59.462583971756715 3.8477510492533984 2.1999999999999997 61.917273892825378 2.9216215136997916 2.1999999999999997 66.287588433361478 5.170271794277487 2 73.145704564569911 2.8299519033379799 2.1999999999999997 75.492943629387554 3.7060532377003796 2.1999999999999997 85.737902702167091 1.2245779697453349 2.1999999999999997 90.280138993576571 3.4664248064147425 2.1999999999999997 95.758084315244588 3.1358411102391228 2.1999999999999997 103.52227308180514 1 2 7.150842439596242 3.0381120426057624 2 17.273096947162085 3.3122796015500713 2 29.218495889053525 3.5760518966129848 2 41.935670374572098 3.1517097031218166 2 49.102363594030841 1.2911096676774465 2 55.040462750803606 3.8188185986282241 2 56.424723772148035 1.9330598308613274 2 65.142399908353681 3.3403829630301378 2 67.955358949277937 3.6472908062719394 2 70.648517041122631 2.9900961779882955 2 79.138950387577481 1.197571563625496 2 80.786156483793846 3.1159233750674495 2 90.540209596626255 1.1755003465305183 2 93.434151414465475 3.6071761063074375 2 102.24530165435095 2.8548156504490367 2 22.58944462213308 3.621370961960265 2 34.053083398519085 3.508766304942355 2 37.213222389111003 1.3507398271917119 2 52.703758948831847 3.7467161463999648 2 57.163126836152998 4.1909492744888874 2 60.873986172757725 1 2 71.953479407242526 4.8465509219886602 2 76.475954377193517 1.2711436383578663 2 84.406162922627914 3.1673721884442929 2 91.230327737170498 5.7939465078107828 2 95.815963387035026 1 2 </DataArray>
<DataArray Name="forces" NumberOfComponents="3" format="ascii" type="Float32">-0.16512230929589444 0.0 0.0 0.015148615394768528 -0.022871757889752473 0.0 0.031739362541551269 -0.058636872027562556 0.0 0.016241126740300871 0.0 0.0 0.015900191586574408 0.0 0.0 0.013889236599188948 0.0 0.0 0.012214572185312633 0.0 0.0 -0.018811938581938588 -0.086651320287687725 0.0 -0.051863494217048611 0.0 0.0 -0.046252116101030083 0.0 0.0 -0.032665598038766092 -0.01715490241233426 0.0 -0.0089848692091386365 -0.24876676468396927 0.0 -0.1120389427675194 -0.17191866828269453 0.0 0.0068771777503539577 0.073113751371255795 0.0 0.035056022608684137 -0.30239210607984174 0.0 0.031783260231811994 0.0 0.0 0.012248893816583006 0.0 0.0 -0.0087732981751630912 -0.14987773976784577 0.0 -0.078507459845965022 0.22820230297535693 0.0 -0.035633211445849029 -0.13791897952625615 0.0 0.099985885359626492 -0.30357834633137981 0.0 -0.018145189753276107 -0.25829056183649612 0.0 0.0086434627325768232 -0.10481707362968827 0.0 0.012061355336416502 -0.64252968099851815 0.0 -0.071482711800610665 -0.19988576113415374 0.0 0.0066199501975244268 -0.24558013904814888 0.0 0.041014494586130379 0.23698434446592959 0.0 0.0099771494100405408 -0.15989487392881721 0.0 0.001227763381673309 -0.025845965183471931 0.0 -0.018977524512199001 0.44651165009850147 0.0 0.057090995112432152 0.12236648638091129 0.0 0.16689079049878797 -0.15199199148771481 0.0 -0.038635594918791219 -0.016130459083490613 0.0 -0.013986515086993306 -0.05591821121337566 0.0 0.013189725427621909 -0.16085540629697984 0.0 -0.023790231467755787 -0.17262499748160159 0.0 0.011077760639506523 0.27130514763318619 0.0 -0.090949057474526168 -0.14728672960014855 0.0 -0.0082470532923083328 0.12520731212866643 0.0 -0.027914146937023737 -0.3216121545529827 0.0 -0.027068301268916434 0.30239158344875666 0.0 0.0057440903170163787 0.3239003083315144 0.0 -0.10823640253224202 0.10108701027789567 0.0 0.00024193049566189825 0.21648598286971532 0.0 0.017802732568281673 0.28082128398825101 0.0 -0.014236666643519524 -0.56332739147873667 0.0 -0.068712650983221268 0.28845420921269305 0.0 0.014395424687318062 0.25540149218571967 0.0 0.085225973579368383 -0.12540886086272876 0.0 0.036095747767327477 0.24466325327324423 0.0 -0.057743834676662616 0.089133993909228507 0.0 -0.036372271046550698 0.12972423418918674 0.0 0.027225596066298968 0.23611140655935853 0.0 -0.029145431651573572 -0.26625560920351499 0.0 0.026854732660857035 0.058059937249282004 0.0 0.013743576448680571 0.11051678743608812 0.0 0.0031346905908406913 0.11562316201026454 0.0 -0.0099554142579846676 0.2716452734010481 0.0 -0.0082769506900390311 0.2928520720208842 0.0 0.019563877880607983 -0.68391414107673265 0.0 0.08026520800715925 0.24148529453967649 0.0 0.15031156761897646 -0.78246469672434016 0.0 0.0025803641689338373 0.17356809623442018 0.0 0.02621148183029226 0.19859971517487796 0.0 0.10181719556411091 0.17262499748160159 0.0 0.036173762251157253 0.19692513405667625 0.0 -0.03883364944006934 0.0 0.0 -0.0018201778965567933 0.25165260112117299 0.0 -0.05831826928620671 0.036095622035601835 0.0 0.12669321449981236 -0.2269508481176204 0.0 0.048810239533393807 0.15280943385871898 0.0 0.00774309639817089 -0.35540625617752386 0.0 -0.088051914800686304 0.26741426035757809 0.0 0.10450787707842871 0.26743233592761007 0.0 -0.059940504386205358 -0.2601155602266505 0.0 </DataArray>
<DataArray Name="radii" format="ascii" type="Float32">1 1 1.4 1 1 1 1 1.4 1 1 1 1.4 1 1.4 1 1 1 1 1.4 1.4 1.4 1.4 1.4 1.4 1 1 1.4 1 1 1.4 1.4 1.4 1 1.4 1 1.4 1.4 1.4 1 1.4 1.4 1.4 1 1.4 1.4 1.4 1.4 1.4 1 1.4 1 1 1.4 1.4 1 1.4 1 1.4 1.4 1.4 1.4 1.4 1 1.4 1.4 1 1.4 1.4 1 1 1 1.4 1.4 1.4 1 </DataArray>
</PointData>
<CellData/>
</Piece>
</UnstructuredGrid>
</VTKFile>
