<?xml version="1.0" ?>
<VTKFile byte_order="LittleEndian" type="UnstructuredGrid" version="0.1">
<UnstructuredGrid>
<Piece NumberOfCells="0" NumberOfPoints="34">
<Points>
<DataArray NumberOfComponents="3" format="ascii" type="Float32">1 1 2.0 4.0 1 2.0 7.0 1 2.0 10.0 1 2.0 13.0 1 2.0 15.722663074594994 2.0264641654692426 2 19.016603573673247 2.02825330407885 2 22.298648415402866 2.0002458118998163 2 25.003138297888484 1 2.0 27.751505127419581 2.0278817106156177 2 31.267081363301731 2.0000423155327467 2 34.001940190058484 1 2.0 37.0 2 2 40.0 1 2.0 42.721586806622447 2.026491106406735 2 45.988835024050623 2.0264563546245928 2 49.048019913777829 2.0282757719163196 2 52.300000000000004 2.0002311549069964 2 55.003138297888484 1 2.0 58.0 1 2.0 60.722663074594998 2.0264641654692426 2 64.016603573673251 2.02825330407885 2 67.298648415402852 2.0002458118998159 2 70.003138297888484 1 2.0 72.751505127419591 2.0278817106156177 2 76.267081363301727 2.0000423155327463 2 79.001940190058491 1 2.0 82.0 2 2 85.0 1 2.0 88.0 2 2 91.0 1 2.0 94.0 2 2 96.813822575629999 1 2.0 99.186177424370001 2.0904616297062009 2 </DataArray>
</Points>
<Cells>
<DataArray Name="connectivity" format="ascii" type="Int32">0</DataArray>
<DataArray Name="offsets" format="ascii" type="Int32">0</DataArray>
<DataArray Name="types" format="ascii" type="UInt8">1</DataArray>
</Cells>
<PointData>
<DataArray Name="Points" NumberOfComponents="3" format="ascii" type="Float32">1 1 2.0 4.0 1 2.0 7.0 1 2.0 10.0 1 2.0 13.0 1 2.0 15.722663074594994 2.0264641654692426 2 19.016603573673247 2.02825330407885 2 22.298648415402866 2.0002458118998163 2 25.003138297888484 1 2.0 27.751505127419581 2.0278817106156177 2 31.267081363301731 2.0000423155327467 2 34.001940190058484 1 2.0 37.0 2 2 40.0 1 2.0 42.721586806622447 2.026491106406735 2 45.988835024050623 2.0264563546245928 2 49.048019913777829 2.0282757719163196 2 52.300000000000004 2.0002311549069964 2 55.003138297888484 1 2.0 58.0 1 2.0 60.722663074594998 2.0264641654692426 2 64.016603573673251 2.02825330407885 2 67.298648415402852 2.0002458118998159 2 70.003138297888484 1 2.0 72.751505127419591 2.0278817106156177 2 76.267081363301727 2.0000423155327463 2 79.001940190058491 1 2.0 82.0 2 2 85.0 1 2.0 88.0 2 2 91.0 1 2.0 94.0 2 2 96.813822575629999 1 2.0 99.186177424370001 2.0904616297062009 2 </DataArray>
<DataArray Name="forces" NumberOfComponents="3" format="ascii" type="Float32">0.0 0.0 0.0 0.0 0.0 0.0 0.0 0.0 0.0 0.0 0.0 0.0 0.0 0.0 0.0 -0.8044281809343552 -0.00021655208274691198 0.0 -0.013736545714918336 0.0072498994791942344 0.0 0.79293899186476169 0.0019758435980211922 0.0 0.025225734784511851 -0.0090091909944685147 0.0 -0.64212331419333191 0.0052080917344403373 0.0 0.62652800693250532 0.00034013355145346303 0.0 0.015595307260826547 -0.0055482252858938003 0.0 0.0 0.0 0.0 0.0 0.0 0.0 -0.81307925594295938 0.0 0.0 -0.16740455864717985 -0.00027933589186092769 0.0 0.15145500945064749 0.0074304966466174393 0.0 0.803803070354977 0.0018580302397130594 0.0 0.025225734784514772 -0.0090091909944695712 0.0 0.0 0.0 0.0 -0.80442818093436053 -0.00021655208274691377 0.0 -0.013736545714920112 0.0072498994791943125 0.0 0.79293899186477845 0.0019758435980176516 0.0 0.025225734784502241 -0.0090091909944650505 0.0 -0.64212331419335322 0.0052080917344405429 0.0 0.62652800693253585 0.00034013355144996409 0.0 0.01559530726081735 -0.005548225285890507 0.0 0.0 0.0 0.0 0.0 0.0 0.0 0.0 0.0 0.0 0.0 0.0 0.0 0.0 0.0 0.0 -0.45499751165025543 -0.214253476404242 0.0 0.45499751165025543 0.214253476404242 0.0 </DataArray>
<DataArray Name="radii" format="ascii" type="Float32">1 1 1 1 1 2 2 2 1 2 2 1 2 1 2 2 2 2 1 1 2 2 2 1 2 2 1 2 1 2 1 2 1 2 </DataArray>
</PointData>
<CellData/>
</Piece>
</UnstructuredGrid>
</VTKFile>
