<?xml version="1.0" ?>
<VTKFile byte_order="LittleEndian" type="UnstructuredGrid" version="0.1">
<UnstructuredGrid>
<Piece NumberOfCells="0" NumberOfPoints="15">
<Points>
<DataArray NumberOfComponents="3" format="ascii" type="Float32">1.9175858859189159 1.9195070827338752 1.9176800096866482 3.9862890524077432 1.7114938465777005 1.7162951875018511 6.0059578537680069 1.7108921723531032 1.7084668351753882 8.096465059266416 1.9097347755259904 1.9143650011825577 1.7174957950244865 1.7049369099468774 4.045796930290976 4.0417535301504364 1.9181213414772254 4.2658507150660023 6.1774925040081063 1.9142801806931198 4.1137635567687489 8.0995851591400445 1.9125587824181349 4.5004164073959751 1.9043436647202416 1.9123197509163203 6.0042528212180946 4.9718950913266236 1.9110679052243253 6.1153214401797076 8.2740869473013294 1.7031362740874136 6.3807811543439072 1.9130959432126 1.9024440262954241 8.0838768504881031 4.1410691731553264 1.9104751192982392 8.0960469595748989 8.0768900736777294 1.9200128953263542 8.0999999999999996 6.0508934374623573 1.699315291405608 8.2828027649823195 </DataArray>
</Points>
<Cells>
<DataArray Name="connectivity" format="ascii" type="Int32">0</DataArray>
<DataArray Name="offsets" format="ascii" type="Int32">0</DataArray>
<DataArray Name="types" format="ascii" type="UInt8">1</DataArray>
</Cells>
<PointData>
<DataArray Name="Points" NumberOfComponents="3" format="ascii" type="Float32">1.9175858859189159 1.9195070827338752 1.9176800096866482 3.9862890524077432 1.7114938465777005 1.7162951875018511 6.0059578537680069 1.7108921723531032 1.7084668351753882 8.096465059266416 1.9097347755259904 1.9143650011825577 1.7174957950244865 1.7049369099468774 4.045796930290976 4.0417535301504364 1.9181213414772254 4.2658507150660023 6.1774925040081063 1.9142801806931198 4.1137635567687489 8.0995851591400445 1.9125587824181349 4.5004164073959751 1.9043436647202416 1.9123197509163203 6.0042528212180946 4.9718950913266236 1.9110679052243253 6.1153214401797076 8.2740869473013294 1.7031362740874136 6.3807811543439072 1.9130959432126 1.9024440262954241 8.0838768504881031 4.1410691731553264 1.9104751192982392 8.0960469595748989 8.0768900736777294 1.9200128953263542 8.0999999999999996 6.0508934374623573 1.699315291405608 8.2828027649823195 </DataArray>
<DataArray Name="forces" NumberOfComponents="3" format="ascii" type="Float32">-2.1447391179055879 0.52146874498274942 -2.1422896475832882 0.040927853181340457 -0.18414719673030855 -2.178328162881237 -0.059898275945685087 -0.19980512450296625 -2.3820526541351668 2.5103999287817391 0.26715490839499068 -2.228559196121028 -2.1470836370162361 -0.35478445519696167 0.069055511449165552 0.044597194427244052 0.48540631182343952 0.15009251984658037 -0.012937380073984484 0.38544421329586143 0.36664374231536834 2.5915971888063947 0.34064666546051703 -0.20141185207341433 -2.4893537525398024 0.33442612644157144 0.003579205788822426 0.25414311822678071 0.30184818205497699 0.14351912790516219 1.9280335143449088 -0.40164407636689681 -0.061239911484145537 -2.2615850716207029 0.077420962359351253 2.1828052674516583 0.0077909013599759547 0.28642156273865943 2.4995193317677717 2.0009818783348363 0.53463197637235504 2.6023929782166535 0.10639918635090728 -0.50108106137708097 2.1548533416691167 </DataArray>
<DataArray Name="radii" format="ascii" type="Float32">1.9999999999999998 1.7999999999999998 1.7999999999999998 1.9999999999999998 1.7999999999999998 1.9999999999999998 1.9999999999999998 1.9999999999999998 1.9999999999999998 1.9999999999999998 1.7999999999999998 1.9999999999999998 1.9999999999999998 1.9999999999999998 1.7999999999999998 </DataArray>
</PointData>
<CellData/>
</Piece>
</UnstructuredGrid>
</VTKFile>
