<?xml version="1.0" ?>
<VTKFile byte_order="LittleEndian" type="UnstructuredGrid" version="0.1">
<UnstructuredGrid>
<Piece NumberOfCells="0" NumberOfPoints="35">
<Points>
<DataArray NumberOfComponents="3" format="ascii" type="Float32">0.96921125915537409 1 0.98852499388984916 2.8346572163311028 1 0.9331398053323452 6.5044140884090362 1 0.98760803729445812 8.6509716102868293 1.2584559660573824 1.6023662672530536 2.4312148701916412 1.2669446237579725 4.6851929503911736 2.8098013508552557 2.176151088647118 2.5819215973637544 6.7798643539875449 1.3272327683882399 3.9047276536942572 8.5421553719387102 2.7972093788037218 6.6177734838507432 2.7179572759524913 1 6.9249502069093785 4.7273046908177943 1.2994393205689128 6.1099022836210537 7.0218006644606827 1 6.1980628546630072 0.93765031485517736 1 6.2101743220266732 3.3168794812034217 3.1175650720565224 8.206275269989332 9.0 1 5.7496437646564997 5.1577539122110885 1.2991162083984522 8.6672878587069775 6.758816352449136 3.219257088075318 1.3951022841563667 0.95179987458223569 1 2.9373318669603066 4.6490618176848351 1 0.96564618137552405 8.660860770847318 3.2188309517831151 3.4273999641510886 9.0 1 3.8891014665637744 2.7776156203850473 3.0115222413306739 6.0399491627932802 1.2592908609975 1.3156376808931671 8.5252187614104926 7.4266370002073634 1.3578472041279199 8.6712041620541882 9.0 3.4627517166039956 0.9837552165900354 0.95383146096941385 2.8783168449152652 5.2993725687610871 4.4844967234542912 1 3.8514468681546883 5.16748261013307 1.9065629648573301 2.4323013130130575 9.0 4.8820395696358077 6.1562647827171872 4.7472238004650995 3.2269964591238738 4.3239259994822694 3.2462816386808613 1 9.0 6.0234142188129454 3.3759027059550268 7.2190742968556219 4.2054644180086393 3.7690891318909889 1.3576381935587751 7.0235516448970445 4.468932648410803 4.9999392917307945 1.013750724635647 3.5136732194723064 9.0 9.0 1 7.6947497806038578 </DataArray>
</Points>
<Cells>
<DataArray Name="connectivity" format="ascii" type="Int32">0</DataArray>
<DataArray Name="offsets" format="ascii" type="Int32">0</DataArray>
<DataArray Name="types" format="ascii" type="UInt8">1</DataArray>
</Cells>
<PointData>
<DataArray Name="Points" NumberOfComponents="3" format="ascii" type="Float32">0.96921125915537409 1 0.98852499388984916 2.8346572163311028 1 0.9331398053323452 6.5044140884090362 1 0.98760803729445812 8.6509716102868293 1.2584559660573824 1.6023662672530536 2.4312148701916412 1.2669446237579725 4.6851929503911736 2.8098013508552557 2.176151088647118 2.5819215973637544 6.7798643539875449 1.3272327683882399 3.9047276536942572 8.5421553719387102 2.7972093788037218 6.6177734838507432 2.7179572759524913 1 6.9249502069093785 4.7273046908177943 1.2994393205689128 6.1099022836210537 7.0218006644606827 1 6.1980628546630072 0.93765031485517736 1 6.2101743220266732 3.3168794812034217 3.1175650720565224 8.206275269989332 9.0 1 5.7496437646564997 5.1577539122110885 1.2991162083984522 8.6672878587069775 6.758816352449136 3.219257088075318 1.3951022841563667 0.95179987458223569 1 2.9373318669603066 4.6490618176848351 1 0.96564618137552405 8.660860770847318 3.2188309517831151 3.4273999641510886 9.0 1 3.8891014665637744 2.7776156203850473 3.0115222413306739 6.0399491627932802 1.2592908609975 1.3156376808931671 8.5252187614104926 7.4266370002073634 1.3578472041279199 8.6712041620541882 9.0 3.4627517166039956 0.9837552165900354 0.95383146096941385 2.8783168449152652 5.2993725687610871 4.4844967234542912 1 3.8514468681546883 5.16748261013307 1.9065629648573301 2.4323013130130575 9.0 4.8820395696358077 6.1562647827171872 4.7472238004650995 3.2269964591238738 4.3239259994822694 3.2462816386808613 1 9.0 6.0234142188129454 3.3759027059550268 7.2190742968556219 4.2054644180086393 3.7690891318909889 1.3576381935587751 7.0235516448970445 4.468932648410803 4.9999392917307945 1.013750724635647 3.5136732194723064 9.0 9.0 1 7.6947497806038578 </DataArray>
<DataArray Name="forces" NumberOfComponents="3" format="ascii" type="Float32">-0.15959387297899039 0.0 -0.059480856226577714 -0.014238217181949009 -0.25826056567060857 -0.34657076328611169 -0.01877680362363876 -0.15101198281823941 -0.064233913688413774 0.26421206176318479 -0.47835469745927228 -0.074694171317846669 -0.0033694514355064042 -0.43435362038805569 0.050987716096628659 0.0015943109838875702 0.30300765718602279 0.0056029562848903536 -0.039706066747114729 -0.12184917128385225 0.067876552741284416 0.0012696463575379638 0.31298247837277893 0.0058434354687749435 0.033186485841262311 -0.082158326734927692 0.057455491121874397 0.074197476389315176 -0.26591690056548511 -0.040416570593301476 0.069036777134251784 -0.027300841152296175 0.059645731493436133 -0.32319047347529756 -0.05899563291239876 0.089174200905576873 -0.043944667295727782 0.291839510133725 0.07950324054933508 0.082884894393710287 -0.32316783462608417 -0.064634947200712944 0.010343132945734815 -0.26759175706418564 0.34878756587358595 -0.0025219856198259172 0.27837179121402655 -0.025387379242968508 -0.24984603080436718 -0.13590999710000021 0.017429213894555172 -0.025962176690764824 -0.11218930596193522 -0.17807350399829272 0.31547266518714429 0.26849146739315921 -0.00084185419637594627 0.17362534648612735 -0.12871849865337248 -0.078721586947246791 0.028448857319320325 0.1987484500347155 0.019338001000118267 -0.72936780917001276 -0.18195247106501014 0.10920349919695087 0.021305681330780368 0.036841188722044241 0.36908777958145089 0.15189360479788142 0.22528547987531061 -0.084205064220858883 -0.23931527407555664 0.17181438231588614 0.045623671973844579 -0.020323026827387809 -0.25183362985849128 -0.022370083520243087 0.0049928620262361528 0.11876985100894329 -0.052728612358087505 0.12078908374686484 0.22847282794420773 -0.0036760597907487813 -0.13624937688387043 0.28824475935921068 -0.14319166183617743 0.038746912134012157 -0.3024429919905593 0.24536727890690069 -0.022578187493418986 0.32373892923710657 0.089000753676632904 0.0030065845951917566 0.34791969902069958 -0.21958302193840662 -0.078430940138859012 0.24072073706659344 0.026868459291086735 -0.036184327840259704 0.2003660874074224 0.047306713768437939 0.5183514122398647 -0.33114449868943707 -0.07862809139302418 </DataArray>
<DataArray Name="radii" format="ascii" type="Float32">1 1 1 1.4 1.4 1.4 1.4 1.4 1 1.4 1 1 1.4 1 1.4 1.4 1 1 1.4 1 1 1.4 1.4 1 1 1 1 1 1.4 1 1.4 1.4 1.4 1 1 </DataArray>
</PointData>
<CellData/>
</Piece>
</UnstructuredGrid>
</VTKFile>
