<?xml version="1.0" ?>
<VTKFile byte_order="LittleEndian" type="UnstructuredGrid" version="0.1">
<UnstructuredGrid>
<Piece NumberOfCells="0" NumberOfPoints="33">
<Points>
<DataArray NumberOfComponents="3" format="ascii" type="Float32">56.0 2.0 0.0 59.899999999999977 2.0 0.0 62.900000000000006 2.0 0.0 65.899999999999963 2.0 0.0 68.000000000000085 2.0 0.0 71.599999999999909 2.0 0.0 73.70000000000006 2.0 0.0 77.0 2.0 0.0 80.0 2.0 0.0 83.0 2.0 0.0 86.0 2.0 0.0 88.700000000000003 2.0 0.0 91.700000000000003 2.0 0.0 95.299999999999997 2.0 0.0 98.299999999999997 2.0 0.0 2.0 2.0 0.0 5.0 2.0 0.0 8.0 2.0 0.0 11.0 2.0 0.0 14.000000000000007 2.0 0.0 16.09999999999998 2.0 0.0 18.800000000000036 2.0 0.0 22.099999999999866 2.0 0.0 26.600000000000136 2.0 0.0 29.899999999999782 2.0 0.0 32.600000000000477 2.0 0.0 35.599999999999099 2.0 0.0 38.300000000001077 2.0 0.0 41.299999999999287 2.0 0.0 43.700000000000273 2.0 0.0 45.799999999999997 2.0 0.0 48.500000000000021 2.0 0.0 52.699999999999967 2.0 0.0 </DataArray>
</Points>
<Cells>
<DataArray Name="connectivity" format="ascii" type="Int32">0</DataArray>
<DataArray Name="offsets" format="ascii" type="Int32">0</DataArray>
<DataArray Name="types" format="ascii" type="UInt8">1</DataArray>
</Cells>
<PointData>
<DataArray Name="Points" NumberOfComponents="3" format="ascii" type="Float32">56.0 2.0 0.0 59.899999999999977 2.0 0.0 62.900000000000006 2.0 0.0 65.899999999999963 2.0 0.0 68.000000000000085 2.0 0.0 71.599999999999909 2.0 0.0 73.70000000000006 2.0 0.0 77.0 2.0 0.0 80.0 2.0 0.0 83.0 2.0 0.0 86.0 2.0 0.0 88.700000000000003 2.0 0.0 91.700000000000003 2.0 0.0 95.299999999999997 2.0 0.0 98.299999999999997 2.0 0.0 2.0 2.0 0.0 5.0 2.0 0.0 8.0 2.0 0.0 11.0 2.0 0.0 14.000000000000007 2.0 0.0 16.09999999999998 2.0 0.0 18.800000000000036 2.0 0.0 22.099999999999866 2.0 0.0 26.600000000000136 2.0 0.0 29.899999999999782 2.0 0.0 32.600000000000477 2.0 0.0 35.599999999999099 2.0 0.0 38.300000000001077 2.0 0.0 41.299999999999287 2.0 0.0 43.700000000000273 2.0 0.0 45.799999999999997 2.0 0.0 48.500000000000021 2.0 0.0 52.699999999999967 2.0 0.0 </DataArray>
<DataArray Name="forces" NumberOfComponents="3" format="ascii" type="Float32">-0.29999999999997451 0.0 0.0 0.29999999999997451 0.0 0.0 1.6875389974302379e-14 0.0 0.0 0.29999999999995453 0.0 0.0 -0.59999999999989484 0.0 0.0 0.59999999999985221 0.0 0.0 -0.29999999999992877 0.0 0.0 0.0 0.0 0.0 0.0 0.0 0.0 0.0 0.0 0.0 0.0 0.0 0.0 0.0 0.0 0.0 -5.773159728050814e-15 0.0 0.0 5.773159728050814e-15 0.0 0.0 0.0 0.0 0.0 0.0 0.0 0.0 0.0 0.0 0.0 0.0 0.0 0.0 0.0 0.0 0.0 7.7715611723760958e-15 0.0 0.0 0.29999999999997073 0.0 0.0 4.8405723873656825e-14 0.0 0.0 -0.60000000000014708 0.0 0.0 0.60000000000024301 0.0 0.0 -2.3314683517128287e-13 0.0 0.0 -0.29999999999943228 0.0 0.0 -1.2647660696529783e-12 0.0 0.0 1.5205614545266144e-12 0.0 0.0 0.29999999999901661 0.0 0.0 -0.2999999999997256 0.0 0.0 -4.2188474935755949e-15 0.0 0.0 -0.59999999999994325 0.0 0.0 0.59999999999994325 0.0 0.0 </DataArray>
<DataArray Name="radii" format="ascii" type="Float32">2 2 1 2 1 2 1 2 1 2 1 1 2 2 1 1 1 1 1 1 1 2 2 2 2 1 2 1 2 1 1 2 2 </DataArray>
</PointData>
<CellData/>
</Piece>
</UnstructuredGrid>
</VTKFile>
