<?xml version="1.0" ?>
<VTKFile byte_order="LittleEndian" type="UnstructuredGrid" version="0.1">
<UnstructuredGrid>
<Piece NumberOfCells="0" NumberOfPoints="34">
<Points>
<DataArray NumberOfComponents="3" format="ascii" type="Float32">1 1 2.0 4.0 1 2.0 7.0 1 2.0 10.0 1 2.0 12.903304515079791 1 2.0 15.451721692954491 2.0653467358591158 2 19.010198623876629 2.0299826597548813 2 22.555839391936392 2.0436845179299739 2 25.041382379760901 1 2.0 27.615205258011319 2.0603267503741924 2 31.407742296553032 2.0262537508280967 2 34.076185884166833 1 2.0 37.0 2 2 39.899314303607369 1 2.0 42.41794128105829 2.0676449238996115 2 45.864435436968812 2.024857896618423 2 49.163858977397837 2.0313719432039292 2 52.600000000000009 2.0416354889440815 2 55.116030043307084 1 2.0 57.903304515079796 1 2.0 60.451721692954493 2.0653467358591158 2 64.010198623876633 2.0299826597548813 2 67.555839391936388 2.0436845179299703 2 70.041382379760904 1 2.0 72.615205258011329 2.0603267503741902 2 76.407742296553039 2.0262537508280962 2 79.076185884166833 1 2.0 82.0 2 2 85.0 1 2.0 88.0 2 2 91.0 1 2.0 93.965344028660297 2.0126500257917219 2 96.697744596325833 1 2.0 99.336911375013869 2.1584995888887728 2 </DataArray>
</Points>
<Cells>
<DataArray Name="connectivity" format="ascii" type="Int32">0</DataArray>
<DataArray Name="offsets" format="ascii" type="Int32">0</DataArray>
<DataArray Name="types" format="ascii" type="UInt8">1</DataArray>
</Cells>
<PointData>
<DataArray Name="Points" NumberOfComponents="3" format="ascii" type="Float32">1 1 2.0 4.0 1 2.0 7.0 1 2.0 10.0 1 2.0 12.903304515079791 1 2.0 15.451721692954491 2.0653467358591158 2 19.010198623876629 2.0299826597548813 2 22.555839391936392 2.0436845179299739 2 25.041382379760901 1 2.0 27.615205258011319 2.0603267503741924 2 31.407742296553032 2.0262537508280967 2 34.076185884166833 1 2.0 37.0 2 2 39.899314303607369 1 2.0 42.41794128105829 2.0676449238996115 2 45.864435436968812 2.024857896618423 2 49.163858977397837 2.0313719432039292 2 52.600000000000009 2.0416354889440815 2 55.116030043307084 1 2.0 57.903304515079796 1 2.0 60.451721692954493 2.0653467358591158 2 64.010198623876633 2.0299826597548813 2 67.555839391936388 2.0436845179299703 2 70.041382379760904 1 2.0 72.615205258011329 2.0603267503741902 2 76.407742296553039 2.0262537508280962 2 79.076185884166833 1 2.0 82.0 2 2 85.0 1 2.0 88.0 2 2 91.0 1 2.0 93.965344028660297 2.0126500257917219 2 96.697744596325833 1 2.0 99.336911375013869 2.1584995888887728 2 </DataArray>
<DataArray Name="forces" NumberOfComponents="3" format="ascii" type="Float32">0.0 0.0 0.0 0.0 0.0 0.0 0.0 0.0 0.0 0.0 0.0 0.0 -0.20246933357980326 -0.08195894488213859 0.0 -0.31859031071406485 0.084000823320674184 0.0 -0.0097873191007712412 -0.00033883632147853338 0.0 0.28714371394220772 0.096032525155640022 0.0 0.072984852688134289 -0.16574679841541751 0.0 -0.091727968718987807 0.070064465216974597 0.0 0.1221393105857258 0.051305816025953778 0.0 0.14030705489755929 -0.053359050100207965 0.0 0.0 0.0 0.0 -0.21409975338675949 -0.087193279919080061 0.0 -0.39145465023725301 0.090465943974268465 0.0 -0.18922594732201969 -0.0043956098163737464 0.0 0.17639763201459702 0.0033097666138238394 0.0 0.38810295276928197 0.089554224636492666 0.0 0.2302797661621532 -0.091741045489131159 0.0 -0.20246933357980776 -0.081958944882140533 0.0 -0.3185903107140603 0.084000823320676057 0.0 -0.0097873191007789018 -0.00033883632147809883 0.0 0.28714371394222338 0.096032525155635817 0.0 0.072984852688138119 -0.16574679841540851 0.0 -0.091727968719010289 0.070064465216969546 0.0 0.12213931058572985 0.051305816025956304 0.0 0.1403070548975659 -0.053359050100210581 0.0 0.0 0.0 0.0 0.0 0.0 0.0 0.0 0.0 0.0 0.0 0.0 0.0 -0.081242245881486611 0.029855903693235944 0.0 -0.089912131737403575 -0.10565188960500407 0.0 0.17115437761889019 0.075795985911768129 0.0 </DataArray>
<DataArray Name="radii" format="ascii" type="Float32">1 1 1 1 1 2 2 2 1 2 2 1 2 1 2 2 2 2 1 1 2 2 2 1 2 2 1 2 1 2 1 2 1 2 </DataArray>
</PointData>
<CellData/>
</Piece>
</UnstructuredGrid>
</VTKFile>
