<?xml version="1.0" ?>
<VTKFile byte_order="LittleEndian" type="UnstructuredGrid" version="0.1">
<UnstructuredGrid>
<Piece NumberOfCells="0" NumberOfPoints="34">
<Points>
<DataArray NumberOfComponents="3" format="ascii" type="Float32">1.9618773500051472 2.1088436205603789 2.0 4.2176872411207578 0.98093867500257359 2.0 7.0 1.0 2.0 9.9948222838914269 0.99855680306614691 2.0 12.731006276424724 2.0018645403451361 2.0 16.268993723575278 2.0018645403451356 2.0 19.005177716108577 0.99855680306614691 2.0 22.0 2.0 2.0 25.0 1.0 2.0 27.991982014923963 0.99788803219945665 2.0 30.689258221335326 2.0029251852251697 2.0 34.0 1.9999725558704617 2.0 37.31066303064528 2.002954855457737 2.0 40.002769974574704 0.99636010290509514 2.0 42.731155318836869 2.0019196024730763 2.0 46.268993723575278 2.0018645403451361 2.0 49.00517771610857 0.9985568030661468 2.0 52.0 2.0 2.0 55.0 1.0 2.0 58.0 2.0 2.0 61.0 1.0 2.0 64.0 2.0 2.0 67.0 1.0 2.0 70.0 2.0 2.0 73.0 1.0 2.0 76.0 1.0 2.0 79.0 1.0 2.0 81.991825427089765 0.99784467090640816 2.0 84.685516165656779 2.0029845544924769 2.0 87.955042978350747 1.9999853752432188 2.0 90.993113663945849 2.0 2.0 93.96580918907118 2.0 2.0 96.808692575885686 2.0 2.0 99.599999999999966 2.0 2.0 </DataArray>
</Points>
<Cells>
<DataArray Name="connectivity" format="ascii" type="Int32">0</DataArray>
<DataArray Name="offsets" format="ascii" type="Int32">0</DataArray>
<DataArray Name="types" format="ascii" type="UInt8">1</DataArray>
</Cells>
<PointData>
<DataArray Name="Points" NumberOfComponents="3" format="ascii" type="Float32">1.9618773500051472 2.1088436205603789 2.0 4.2176872411207578 0.98093867500257359 2.0 7.0 1.0 2.0 9.9948222838914269 0.99855680306614691 2.0 12.731006276424724 2.0018645403451361 2.0 16.268993723575278 2.0018645403451356 2.0 19.005177716108577 0.99855680306614691 2.0 22.0 2.0 2.0 25.0 1.0 2.0 27.991982014923963 0.99788803219945665 2.0 30.689258221335326 2.0029251852251697 2.0 34.0 1.9999725558704617 2.0 37.31066303064528 2.002954855457737 2.0 40.002769974574704 0.99636010290509514 2.0 42.731155318836869 2.0019196024730763 2.0 46.268993723575278 2.0018645403451361 2.0 49.00517771610857 0.9985568030661468 2.0 52.0 2.0 2.0 55.0 1.0 2.0 58.0 2.0 2.0 61.0 1.0 2.0 64.0 2.0 2.0 67.0 1.0 2.0 70.0 2.0 2.0 73.0 1.0 2.0 76.0 1.0 2.0 79.0 1.0 2.0 81.991825427089765 0.99784467090640816 2.0 84.685516165656779 2.0029845544924769 2.0 87.955042978350747 1.9999853752432188 2.0 90.993113663945849 2.0 2.0 93.96580918907118 2.0 2.0 96.808692575885686 2.0 2.0 99.599999999999966 2.0 2.0 </DataArray>
<DataArray Name="forces" NumberOfComponents="3" format="ascii" type="Float32">-0.50371698187384306 0.25185849093692153 0.0 0.50371698187384306 -0.25185849093692153 0.0 0.0 0.0 0.0 -0.052773991587387159 -0.019069052226648169 0.0 -0.4822317399756807 0.019069052226648169 0.0 0.48223173997568236 0.019069052226647554 0.0 0.052773991587385487 -0.019069052226647554 0.0 0.0 0.0 0.0 0.0 0.0 0.0 -0.076446651648963346 -0.027905563921921582 0.0 -0.66298816938625427 0.028086874430280885 0.0 -7.1054273576010019e-15 -0.00036262101671850661 0.0 0.66194766683301842 0.028478909086910337 0.0 0.022743855810899431 -0.048094190178919458 0.0 -0.48026243317175388 0.019796591600368323 0.0 0.48223173997566904 0.019069052226649862 0.0 0.052773991587391739 -0.019069052226649862 0.0 0.0 0.0 0.0 0.0 0.0 0.0 0.0 0.0 0.0 0.0 0.0 0.0 0.0 0.0 0.0 0.0 0.0 0.0 0.0 0.0 0.0 0.0 0.0 0.0 0.0 0.0 0.0 0.0 0.0 0.0 -0.077965683240749734 -0.02847849942529088 0.0 -0.68897399287800964 0.028671737260211952 0.0 -0.20713829566526754 -0.00019323783492107276 0.0 -0.046617318512318207 0.0 0.0 -0.13394489172374335 0.0 0.0 -0.16666613310189859 0.0 0.0 1.321306315121987 0.0 0.0 </DataArray>
<DataArray Name="radii" format="ascii" type="Float32">2 1 1 1 2 2 1 2 1 1 2 2 2 1 2 2 1 2 1 2 1 2 1 2 1 1 1 1 2 2 2 2 2 2 </DataArray>
</PointData>
<CellData/>
</Piece>
</UnstructuredGrid>
</VTKFile>
