<?xml version="1.0" ?>
<VTKFile byte_order="LittleEndian" type="UnstructuredGrid" version="0.1">
<UnstructuredGrid>
<Piece NumberOfCells="0" NumberOfPoints="15">
<Points>
<DataArray NumberOfComponents="3" format="ascii" type="Float32">0.98982973374994132 1 0.99784908245110848 3.4079144158040542 1.5409853660403714 1.5106624594695035 5.8030642467314753 1 0.99817444107588293 8.4235658276658647 1.5446837866449354 1.5332644547974033 1.520092658302084 1.5464354456834473 3.6887512430674549 4.5725846112223767 1.5534720846846797 4.0472665042160871 6.5194119658223597 1 2.8801932377419006 8.4767921699371325 1.5410300982154053 4.4014463342537811 2.6190933933999005 1 5.6503008287469063 4.2951717950816413 1 6.2851182761533995 6.5675875405685016 1.5451886533627117 6.0863565948869471 1.5264130212456493 1.5603089224694839 7.8054256745706478 3.553567906395946 1 7.8593522513279845 8.4521474015922013 1.5361490077510451 8.4221945574660424 5.4681716192283183 1.5575432472084332 8.5 </DataArray>
</Points>
<Cells>
<DataArray Name="connectivity" format="ascii" type="Int32">0</DataArray>
<DataArray Name="offsets" format="ascii" type="Int32">0</DataArray>
<DataArray Name="types" format="ascii" type="UInt8">1</DataArray>
</Cells>
<PointData>
<DataArray Name="Points" NumberOfComponents="3" format="ascii" type="Float32">0.98982973374994132 1 0.99784908245110848 3.4079144158040542 1.5409853660403714 1.5106624594695035 5.8030642467314753 1 0.99817444107588293 8.4235658276658647 1.5446837866449354 1.5332644547974033 1.520092658302084 1.5464354456834473 3.6887512430674549 4.5725846112223767 1.5534720846846797 4.0472665042160871 6.5194119658223597 1 2.8801932377419006 8.4767921699371325 1.5410300982154053 4.4014463342537811 2.6190933933999005 1 5.6503008287469063 4.2951717950816413 1 6.2851182761533995 6.5675875405685016 1.5451886533627117 6.0863565948869471 1.5264130212456493 1.5603089224694839 7.8054256745706478 3.553567906395946 1 7.8593522513279845 8.4521474015922013 1.5361490077510451 8.4221945574660424 5.4681716192283183 1.5575432472084332 8.5 </DataArray>
<DataArray Name="forces" NumberOfComponents="3" format="ascii" type="Float32">-0.080898643724685707 -0.018221477820831042 -0.017109317316834429 0.037222230414631907 0.042358785806715669 -0.71062897321636664 0.057904790007568784 -0.014521275782698068 -0.014521275782698068 0.18745266343514891 0.071777603709436213 -0.53084304406350702 -0.63561714197689767 0.085711048223031439 0.042924920864283844 -0.00337978833989655 0.14168348174478348 0.089513092271225059 -0.03607147038938361 -0.14313155931886049 -0.029482052542500331 0.6108377346122762 0.042714604641947429 -0.012948001577207713 -0.0049759714506364822 -0.11065906946158909 0.091095556360826876 0.01364716222950578 -0.13394231074449678 0.096437925957677459 0.062373242940073625 0.075793529322946404 0.069376381716736713 -0.585342274297869 0.19606661101174383 0.1109078889928054 -0.046605128440627142 -0.29554579256192348 0.095752450266920197 0.41480271596146778 0.0038883252943489395 0.17654499429275181 -0.013492606258495576 0.17406724815331048 0.79544273213317984 </DataArray>
<DataArray Name="radii" format="ascii" type="Float32">1 1.5999999999999999 1 1.5999999999999999 1.5999999999999999 1.5999999999999999 1 1.5999999999999999 1 1 1.5999999999999999 1.5999999999999999 1 1.5999999999999999 1.5999999999999999 </DataArray>
</PointData>
<CellData/>
</Piece>
</UnstructuredGrid>
</VTKFile>
