<?xml version="1.0" ?>
<VTKFile byte_order="LittleEndian" type="UnstructuredGrid" version="0.1">
<UnstructuredGrid>
<Piece NumberOfCells="0" NumberOfPoints="60">
<Points>
<DataArray NumberOfComponents="3" format="ascii" type="Float32">2.8928297562218437 3.1301391703616916 2.8879156752776001 2.999994790111133 1 0.9345887932981346 4.9246503250867866 1.1163878649669359 1.1157091801768853 8.8829814590733474 1.125934740947419 1.1333274670873743 0.97598979086907744 2.8466535026664901 3.9432675613994133 3.6772647330571635 5.2124067699403724 3.7695857348980701 5.5047116576567721 1.1350988886865709 3.7383100470823654 8.8978203506376179 1.1373379444277476 5.3381766535393362 1.1307560037884712 3.2008917160862258 6.3404164799587548 4.5812061796418302 1.1370387454083191 5.4273787267074294 5.2740820362684371 2.8810982473308546 6.6722363346582858 3.0052080686440408 1.1498023449723727 8.8773606786755082 5.2629609092476857 1.1184613864978525 8.9000000000000004 9.0 2.6045503505650967 9.0 7.3262590829741425 1.1112953570734372 8.8678456613943464 1.1145591210525221 1.1147764577887258 1.125376532160876 8.8857034737314571 1.1582377563448121 2.9983000795363353 6.8424676306129184 4.872681554636717 1.1874276192284603 2.1005786837651037 1.1375854717869027 2.6664961286496189 6.7893281298517891 4.8454841951347687 4.6280537197893352 8.8153542454326317 5.1114528989520505 6.1180748784930534 1.1237556241609872 1.1290312611034807 5.1271574682522534 4.2129037539329248 1.116147292221402 7.2786466431078463 1.1175079278479998 1.1383046617243981 7.2447324813455865 2.9249885438327392 5.0909374787349817 8.8152112403783498 5.5573937969617626 5.2017289151512731 8.6081710292585072 4.8983230068255548 3.9223783509442618 2.2125173719468467 0.99347272270944953 4.54872198787593 2.7517178052405624 6.3626130194942228 1 5.4348886941650196 9.0 1 7.432053685018758 2.9705449777090753 4.8832692730743972 1.1886881241125533 4.1332785249432797 1.1458982503962702 2.7468574261583072 8.8217271120676841 3.3242776015139115 1.1882087259136513 5.0954153982625874 3.1713101284141656 4.3058908381790912 7.5677701493356402 1.1301768422875165 4.2219812435839259 8.8468828280462279 3.3357799435341007 4.313406010517042 4.6495873004809649 4.8680772127353826 6.1572175223424681 2.6758474261455967 1.1157863615090509 6.4505062603256391 1.1316202730993192 1.1202079397774078 8.8889254751895699 4.4856826400547334 3.1221509412099149 8.8584119210555841 6.857322001216553 3.1294312706213758 8.8173372747289491 1.1775699528243837 3.128276782349654 1.1642645770119573 6.5561287511294024 1.1184154790268377 2.4392271992376635 7.1525874251613093 1.1415049669288231 1.0928168194351888 3.0049970718812755 3.2064492683192398 5.1109069153606947 7.0428221126347941 3.1541037737472215 2.8731378741328362 8.8172481810442083 2.9388769768865828 6.9121275890740037 3.0399225674764452 1.1121752315545415 4.3573823994374647 6.2995861589901301 1.1449799852161588 7.1722340943541063 1.1741852134669166 3.3113238616847736 8.8281752638735522 3.095830632724585 3.2679983329645013 7.3490422965796931 8.8068828298121975 4.6952280757208404 8.8012880519141614 3.6289678892069799 2.7673758942384286 0.96236780699954128 0.90663154938669255 1 3.3874236574533381 6.8229591013800261 4.2014362479044669 6.8981790075066369 9.0 1 9.0 5.8700905106187236 2.8968618260246295 0.95591349534218384 1.2322987700383006 4.7471609076346173 4.7941866321914386 6.9980220128571187 2.7427078505194391 5.5591299767754068 7.7341018920562643 1 6.6023343264013246 </DataArray>
</Points>
<Cells>
<DataArray Name="connectivity" format="ascii" type="Int32">0</DataArray>
<DataArray Name="offsets" format="ascii" type="Int32">0</DataArray>
<DataArray Name="types" format="ascii" type="UInt8">1</DataArray>
</Cells>
<PointData>
<DataArray Name="Points" NumberOfComponents="3" format="ascii" type="Float32">2.8928297562218437 3.1301391703616916 2.8879156752776001 2.999994790111133 1 0.9345887932981346 4.9246503250867866 1.1163878649669359 1.1157091801768853 8.8829814590733474 1.125934740947419 1.1333274670873743 0.97598979086907744 2.8466535026664901 3.9432675613994133 3.6772647330571635 5.2124067699403724 3.7695857348980701 5.5047116576567721 1.1350988886865709 3.7383100470823654 8.8978203506376179 1.1373379444277476 5.3381766535393362 1.1307560037884712 3.2008917160862258 6.3404164799587548 4.5812061796418302 1.1370387454083191 5.4273787267074294 5.2740820362684371 2.8810982473308546 6.6722363346582858 3.0052080686440408 1.1498023449723727 8.8773606786755082 5.2629609092476857 1.1184613864978525 8.9000000000000004 9.0 2.6045503505650967 9.0 7.3262590829741425 1.1112953570734372 8.8678456613943464 1.1145591210525221 1.1147764577887258 1.125376532160876 8.8857034737314571 1.1582377563448121 2.9983000795363353 6.8424676306129184 4.872681554636717 1.1874276192284603 2.1005786837651037 1.1375854717869027 2.6664961286496189 6.7893281298517891 4.8454841951347687 4.6280537197893352 8.8153542454326317 5.1114528989520505 6.1180748784930534 1.1237556241609872 1.1290312611034807 5.1271574682522534 4.2129037539329248 1.116147292221402 7.2786466431078463 1.1175079278479998 1.1383046617243981 7.2447324813455865 2.9249885438327392 5.0909374787349817 8.8152112403783498 5.5573937969617626 5.2017289151512731 8.6081710292585072 4.8983230068255548 3.9223783509442618 2.2125173719468467 0.99347272270944953 4.54872198787593 2.7517178052405624 6.3626130194942228 1 5.4348886941650196 9.0 1 7.432053685018758 2.9705449777090753 4.8832692730743972 1.1886881241125533 4.1332785249432797 1.1458982503962702 2.7468574261583072 8.8217271120676841 3.3242776015139115 1.1882087259136513 5.0954153982625874 3.1713101284141656 4.3058908381790912 7.5677701493356402 1.1301768422875165 4.2219812435839259 8.8468828280462279 3.3357799435341007 4.313406010517042 4.6495873004809649 4.8680772127353826 6.1572175223424681 2.6758474261455967 1.1157863615090509 6.4505062603256391 1.1316202730993192 1.1202079397774078 8.8889254751895699 4.4856826400547334 3.1221509412099149 8.8584119210555841 6.857322001216553 3.1294312706213758 8.8173372747289491 1.1775699528243837 3.128276782349654 1.1642645770119573 6.5561287511294024 1.1184154790268377 2.4392271992376635 7.1525874251613093 1.1415049669288231 1.0928168194351888 3.0049970718812755 3.2064492683192398 5.1109069153606947 7.0428221126347941 3.1541037737472215 2.8731378741328362 8.8172481810442083 2.9388769768865828 6.9121275890740037 3.0399225674764452 1.1121752315545415 4.3573823994374647 6.2995861589901301 1.1449799852161588 7.1722340943541063 1.1741852134669166 3.3113238616847736 8.8281752638735522 3.095830632724585 3.2679983329645013 7.3490422965796931 8.8068828298121975 4.6952280757208404 8.8012880519141614 3.6289678892069799 2.7673758942384286 0.96236780699954128 0.90663154938669255 1 3.3874236574533381 6.8229591013800261 4.2014362479044669 6.8981790075066369 9.0 1 9.0 5.8700905106187236 2.8968618260246295 0.95591349534218384 1.2322987700383006 4.7471609076346173 4.7941866321914386 6.9980220128571187 2.7427078505194391 5.5591299767754068 7.7341018920562643 1 6.6023343264013246 </DataArray>
<DataArray Name="forces" NumberOfComponents="3" format="ascii" type="Float32">5.073065399811838e-05 0.44077990522534782 0.0057666121642052093 -0.0038495921066656613 -0.42701928102242614 -0.79260669748587254 0.0077499688755663654 -0.57461395865946363 -1.0213764841991571 1.0055105775446334 -0.45893167386861916 -0.80789055560088385 -0.29093871715201031 0.30618311447594782 0.0055973192117665244 0.018107328650166295 0.43763615277299728 0.00031487048647563243 -0.027045221176637838 -0.3478870189686083 -0.026696696158417393 1.185317760902592 -0.3207557265497194 -0.0084847046383452751 -0.83904972748926521 0.43863876956467812 0.0027585521711059602 -0.0046474256094873601 -0.32438120846081064 0.00027246100165043141 0.0091681461547409859 0.30328055850781094 0.0089814655937844323 0.0029727282869963 -0.16972094443898683 0.93740193969714625 0.0012250807228825211 -0.54948849261697874 1.2117292088777027 0.38278827951849448 0.30633870404955232 0.34908045370187901 0.0036866746512187187 -0.63632136426939001 0.82210569607155326 -1.0353120865284291 -0.59413985011178605 -0.9042343564841242 1.0384940242268899 -0.067506600950146531 0.0081080669464190114 -0.0045497028273932122 0.43929626112903519 -0.15234321006007051 -0.016893529257617779 -0.31775636523887163 0.0028073902821608154 0.00047146331946076002 0.44170463709800917 0.0022200051000934029 0.18605187670995629 0.43806429581145334 0.0012808571255131379 -0.92387537216781224 -0.42141023467883265 0.0075749567849049404 0.020394746333477987 -0.57752904888569634 -0.0048025078724082248 -0.99958053327425589 -0.30904173069893021 0.0018147136494090774 -0.00052439023062633705 0.43882995620877929 0.18431904269705535 -0.0025529746720887037 0.4398975264452239 0.0088103477964089905 0.0024645388051638961 0.28640887662602577 0.0038344812925860394 -0.079092925474041245 0.305300643046092 0.0033005596921834301 -0.039961670673899607 -0.55399263348428307 -0.0021808400237643411 0.83248858071393173 -0.44070890785104666 -0.0041117659980267618 0.011187751071956693 0.43683837821282046 -0.13706930420018398 -0.018811256169758594 -0.21702799875982845 -0.02165018230957283 0.26327376316971446 0.44089059918564705 -0.14287831220311401 0.0070555798853528251 0.43559587366554053 0.011601595631052522 -0.031470952954753773 -0.40752889286046445 0.014303110967867107 0.56809292138403855 0.43678215559488598 0.0023319221325056871 0.0017421889260863591 0.43743692673144202 0.006684173171872268 0.0045394261292357324 -0.58190255175106531 0.0084078184427781866 -0.82857712380635318 -0.5283249963799953 1.0775359570053 -0.0015814273947185042 0.4391082633498426 0.70779430889709749 -0.00065491364531787164 0.44036199802190323 0.21008082191403646 -0.27179143319199028 0.4431519343763457 -0.43301655826211077 0.010504064923056323 -0.55004476685232206 0.0080588395423771622 0.0020242369624729473 -0.27026269776367989 -1.2987699059079447 -0.00018488490487800213 0.44224569582264878 0.0017685662912493381 0.0026917307944112484 0.43912577139180348 0.0030585822712788924 0.20900124771276793 0.43723062912612637 0.0025481190478051259 -0.0033889089310768158 -0.62565966818038687 0.0026755054410536015 0.023942118473527008 -0.22815488616219154 0.0024713147229312171 -0.31280530863079914 0.43951946069301473 0.34140790203418847 0.0026745885264034819 0.43531439968518298 0.00046122177060681224 0.083401259231740521 0.44027596859895324 0.01560770126938783 -0.0065848691387618546 0.30340320798217457 -0.45600027452778868 -1.1313727879579993 -0.5309319333112098 0.010167309907212166 0.0023279647130005944 0.31355378836509851 0.0061279128326634791 0.71213571746825222 -0.68067765736759345 0.717472645549731 0.010803997154443246 0.30267590454449328 -0.53420905411198671 -0.0072953022000124962 0.30526102581641568 0.0043687807601298142 0.0048655767404142073 0.310364738012054 0.0080925479598085021 0.0013317065966068787 -0.41175762684240869 -0.015426886430804795 </DataArray>
<DataArray Name="radii" format="ascii" type="Float32">1.2 1 1.2 1.2 1 1.2 1.2 1.2 1.2 1.2 1 1.2 1.2 1 1.2 1.2 1.2 1.2 1.2 1.2 1.2 1.2 1.2 1.2 1.2 1.2 1 1 1 1 1.2 1.2 1.2 1.2 1.2 1.2 1.2 1.2 1.2 1.2 1.2 1.2 1.2 1.2 1.2 1.2 1.2 1.2 1.2 1.2 1.2 1.2 1 1 1 1 1 1 1 1 </DataArray>
</PointData>
<CellData/>
</Piece>
</UnstructuredGrid>
</VTKFile>
