<?xml version="1.0" ?>
<VTKFile byte_order="LittleEndian" type="UnstructuredGrid" version="0.1">
<UnstructuredGrid>
<Piece NumberOfCells="0" NumberOfPoints="49">
<Points>
<DataArray NumberOfComponents="3" format="ascii" type="Float32">0.95843151104028967 1 2 2.8191810364589251 1 2 5.3284693135599044 1.7249528868760005 2.1999999999999997 9.3809623109122331 1 2 11.326330670687591 1 2 14.0 1 2 15.991615179923045 1 2 18.587953229245976 1.7115556116444579 2.1999999999999997 23.542939854998306 1 2 25.995887929867457 1 2 27.962209083286066 1 2 30.553883366457541 1.6995547104269979 2.1999999999999997 33.343243693528585 1 2 39.306876861193722 1.7473556897006843 2.1999999999999997 41.616850424210867 1 2 43.285414620438445 1 2 44.94200302177704 1 2 46.571868050230172 1 2 48.807802111785882 1.7505633229988193 2.1999999999999997 54.948322660774515 1.7335628933715261 2.1999999999999997 57.893593949292018 1.6224794970694056 2.1999999999999997 63.83138116840054 1.7276237311941054 2.1999999999999997 66.821216740756284 1.690048624112205 2.1999999999999997 69.846807537174072 1.6847867607894693 2.1999999999999997 72.263297740347753 1 2 74.049291482076711 1 2 78.649989899563053 1.7077600985227865 2.1999999999999997 80.987912446474198 1 2 82.814295252123244 1 2 82.496191943986148 3.4988489921058434 2.1999999999999997 88.605897876399951 1.6690456232209885 2.1999999999999997 91.900543635806727 1.6840344468234885 2.1999999999999997 97.338941304781301 1 2 99.687759573273297 1.7542035612680753 2.1999999999999997 7.9556916309216534 2.202020814527927 2 21.844382789379534 2.8834027869410899 2 33.387349260457093 3.6953552423102169 2 36.030755221135557 1.6713074252318703 2 50.57236730295142 3.9413624264882419 2 51.971109843718352 1.6713729814401634 2 58.273765388940227 4.9480501246442508 2 60.862759695544014 1.7185699184189525 2 67.023715190637816 4.4447599570421543 2 72.457949427418811 3.682977282691231 2 75.682948931878514 2.8608450537307819 2 85.38750557247711 1.6918345523000953 2 90.178194559246236 4.7458590329446944 2 95.078886249037112 1.7501955469776365 2 102.18728507457203 1 2 </DataArray>
</Points>
<Cells>
<DataArray Name="connectivity" format="ascii" type="Int32">0</DataArray>
<DataArray Name="offsets" format="ascii" type="Int32">0</DataArray>
<DataArray Name="types" format="ascii" type="UInt8">1</DataArray>
</Cells>
<PointData>
<DataArray Name="Points" NumberOfComponents="3" format="ascii" type="Float32">0.95843151104028967 1 2 2.8191810364589251 1 2 5.3284693135599044 1.7249528868760005 2.1999999999999997 9.3809623109122331 1 2 11.326330670687591 1 2 14.0 1 2 15.991615179923045 1 2 18.587953229245976 1.7115556116444579 2.1999999999999997 23.542939854998306 1 2 25.995887929867457 1 2 27.962209083286066 1 2 30.553883366457541 1.6995547104269979 2.1999999999999997 33.343243693528585 1 2 39.306876861193722 1.7473556897006843 2.1999999999999997 41.616850424210867 1 2 43.285414620438445 1 2 44.94200302177704 1 2 46.571868050230172 1 2 48.807802111785882 1.7505633229988193 2.1999999999999997 54.948322660774515 1.7335628933715261 2.1999999999999997 57.893593949292018 1.6224794970694056 2.1999999999999997 63.83138116840054 1.7276237311941054 2.1999999999999997 66.821216740756284 1.690048624112205 2.1999999999999997 69.846807537174072 1.6847867607894693 2.1999999999999997 72.263297740347753 1 2 74.049291482076711 1 2 78.649989899563053 1.7077600985227865 2.1999999999999997 80.987912446474198 1 2 82.814295252123244 1 2 82.496191943986148 3.4988489921058434 2.1999999999999997 88.605897876399951 1.6690456232209885 2.1999999999999997 91.900543635806727 1.6840344468234885 2.1999999999999997 97.338941304781301 1 2 99.687759573273297 1.7542035612680753 2.1999999999999997 7.9556916309216534 2.202020814527927 2 21.844382789379534 2.8834027869410899 2 33.387349260457093 3.6953552423102169 2 36.030755221135557 1.6713074252318703 2 50.57236730295142 3.9413624264882419 2 51.971109843718352 1.6713729814401634 2 58.273765388940227 4.9480501246442508 2 60.862759695544014 1.7185699184189525 2 67.023715190637816 4.4447599570421543 2 72.457949427418811 3.682977282691231 2 75.682948931878514 2.8608450537307819 2 85.38750557247711 1.6918345523000953 2 90.178194559246236 4.7458590329446944 2 95.078886249037112 1.7501955469776365 2 102.18728507457203 1 2 </DataArray>
<DataArray Name="forces" NumberOfComponents="3" format="ascii" type="Float32">-0.18254515052528486 0.0 0.0 0.007580431012847999 -0.050578198916011605 0.0 0.017472219642198528 0.028030365475139703 0.0 0.050519320848538857 -0.090007292529406813 0.0 0.055844201940077554 0.0 0.0 0.0 0.0 0.0 -0.10024134161546885 -0.027509217050333067 0.0 -0.083323381421041759 -0.030802844126032083 0.0 0.18293049127311511 -0.2109525473350386 0.0 -0.018057872203222303 0.0 0.0 -0.086656303143983704 -0.028278143281499076 0.0 -0.083598171924718717 -0.083503973611485052 0.0 -0.030406019768950601 -0.11836716414439977 0.0 -0.0087538166373040682 0.1264107280084972 0.0 -0.00058748150348869599 -0.1139135227839313 0.0 -0.010211665250935198 0.0 0.0 -0.027582902557050204 0.0 0.0 -0.041179574628577464 -0.13654813018313913 0.0 -0.048837729956282272 0.14049682827077736 0.0 -0.037545299591181247 0.065840614803008124 0.0 -0.016952061622562353 -0.42197445392572014 0.0 0.01442363760730081 0.039759193976714735 0.0 0.027664216402648018 -0.12524929562504428 0.0 0.037388057735521008 -0.14835640527301061 0.0 0.0079862834164628159 -0.19833299804205437 0.0 -0.0052180644095521367 -0.24930707864554186 0.0 0.11650133571000898 -0.047470578062373189 0.0 0.14516381307618836 -0.10580639935031021 0.0 0.099337978063297722 -0.3123885422449928 0.0 -0.20640340818336878 0.39984892355097978 0.0 -0.064176852972282372 -0.21748252457127573 0.0 -0.016124908457753384 -0.15166014013562062 0.0 0.090499504757062921 -0.23875009262418423 0.0 0.13718625619870728 0.15648268340862706 0.0 0.02894013931306999 0.11072800891526331 0.0 -0.023822983542027415 0.26514117307764995 0.0 -0.060003095088096869 0.38897378290804741 0.0 -0.032753230563955571 -0.20754997713287798 0.0 -0.060394113140307612 0.1350891009017563 0.0 -0.054826951429236853 -0.20726209156834977 0.0 0.051170605593515758 0.43914309875977076 0.0 5.7245407372952251e-05 0.0 0.0 0.011507102818101883 0.14714089152303983 0.0 0.049490250388595336 0.41425802243225168 0.0 0.062129894812923803 0.33501543694103852 0.0 -0.086484115399865558 -0.11740651523911921 0.0 0.034058634339060617 0.40014657241938889 0.0 0.036210969978307361 0.13888176525485968 0.0 0.1652198856379144 -0.053015800811062948 0.0 </DataArray>
<DataArray Name="radii" format="ascii" type="Float32">1 1 1.7999999999999998 1 1 1 1 1.7999999999999998 1 1 1 1.7999999999999998 1 1.7999999999999998 1 1 1 1 1.7999999999999998 1.7999999999999998 1.7999999999999998 1.7999999999999998 1.7999999999999998 1.7999999999999998 1 1 1.7999999999999998 1 1 1.7999999999999998 1.7999999999999998 1.7999999999999998 1 1.7999999999999998 1 1.7999999999999998 1.7999999999999998 1.7999999999999998 1 1.7999999999999998 1.7999999999999998 1.7999999999999998 1 1.7999999999999998 1.7999999999999998 1.7999999999999998 1.7999999999999998 1.7999999999999998 1 </DataArray>
</PointData>
<CellData/>
</Piece>
</UnstructuredGrid>
</VTKFile>
