<?xml version="1.0" ?>
<VTKFile byte_order="LittleEndian" type="UnstructuredGrid" version="0.1">
<UnstructuredGrid>
<Piece NumberOfCells="0" NumberOfPoints="15">
<Points>
<DataArray NumberOfComponents="3" format="ascii" type="Float32">1.7219161415644118 1.7361652928620128 1.719849340473997 3.9311599594213118 1.5278889909366746 1.5331858581496587 6.0369322045568792 1.5282092361359658 1.5269594124990296 8.2909029158249741 1.7265118381852442 1.7362182223198399 1.5304556755214254 1.521836283497541 3.9095935960021051 3.8850269700548985 1.7338180369080485 3.9744156487532942 6.1989234262762061 1.7309218356790914 3.8276211919158003 8.2999999999999989 1.7294594629727531 4.6208760100784039 1.7341365150405581 1.7286514168543796 6.0438041583497899 4.7910904714593627 1.728269347217833 6.1071373296038214 7.4765021046729263 1.5195445056391874 6.4234132119533953 1.7262868058748697 1.7209759046152218 8.2741961804270101 4.0095772463396635 1.7279014725647523 8.2776143421885937 8.2936809833299172 1.7350356807428464 8.2643260994593248 6.062777405960035 1.5196200443230099 8.4820376197658014 </DataArray>
</Points>
<Cells>
<DataArray Name="connectivity" format="ascii" type="Int32">0</DataArray>
<DataArray Name="offsets" format="ascii" type="Int32">0</DataArray>
<DataArray Name="types" format="ascii" type="UInt8">1</DataArray>
</Cells>
<PointData>
<DataArray Name="Points" NumberOfComponents="3" format="ascii" type="Float32">1.7219161415644118 1.7361652928620128 1.719849340473997 3.9311599594213118 1.5278889909366746 1.5331858581496587 6.0369322045568792 1.5282092361359658 1.5269594124990296 8.2909029158249741 1.7265118381852442 1.7362182223198399 1.5304556755214254 1.521836283497541 3.9095935960021051 3.8850269700548985 1.7338180369080485 3.9744156487532942 6.1989234262762061 1.7309218356790914 3.8276211919158003 8.2999999999999989 1.7294594629727531 4.6208760100784039 1.7341365150405581 1.7286514168543796 6.0438041583497899 4.7910904714593627 1.728269347217833 6.1071373296038214 7.4765021046729263 1.5195445056391874 6.4234132119533953 1.7262868058748697 1.7209759046152218 8.2741961804270101 4.0095772463396635 1.7279014725647523 8.2776143421885937 8.2936809833299172 1.7350356807428464 8.2643260994593248 6.062777405960035 1.5196200443230099 8.4820376197658014 </DataArray>
<DataArray Name="forces" NumberOfComponents="3" format="ascii" type="Float32">-1.4683800222976371 0.33088396033027911 -1.5072465626048297 0.013591386530172528 -0.14613855671090409 -1.2564511163460497 0.005833913937745086 -0.14011629215716687 -1.3735404685691797 1.7094445412953601 0.14934912998866851 -1.1994270007729386 -1.3077926574640375 -0.25996073279826881 -0.023769538610408203 0.028417994124547818 0.286743419390391 0.090071974588055159 -0.011586121433380087 0.23227987070878253 0.055143257737527485 1.8805167312638806 0.20477970729265479 -0.0011187219133110826 -1.238573854455769 0.18958426484031354 0.00064651920427732934 0.059209820596654694 0.18239938139997713 0.078777003624658226 0.20107159068090791 -0.30305799886800772 0.028957543221677096 -1.3861889486720946 0.045244972972742707 1.3952715868886871 -0.0022546689448721402 0.17548143699871338 1.4595506907169173 1.7616865655316494 0.30964141543096868 1.2096630629020513 0.0042287218873238164 -0.30163748128015122 1.5427311656265283 </DataArray>
<DataArray Name="radii" format="ascii" type="Float32">1.7999999999999998 1.5999999999999999 1.5999999999999999 1.7999999999999998 1.5999999999999999 1.7999999999999998 1.7999999999999998 1.7999999999999998 1.7999999999999998 1.7999999999999998 1.5999999999999999 1.7999999999999998 1.7999999999999998 1.7999999999999998 1.5999999999999999 </DataArray>
</PointData>
<CellData/>
</Piece>
</UnstructuredGrid>
</VTKFile>
