<?xml version="1.0" ?>
<VTKFile byte_order="LittleEndian" type="UnstructuredGrid" version="0.1">
<UnstructuredGrid>
<Piece NumberOfCells="0" NumberOfPoints="34">
<Points>
<DataArray NumberOfComponents="3" format="ascii" type="Float32">1 1 2.0 4.0 1 2.0 7.0 1 2.0 10.0 1 2.0 12.832056687886809 1 2.0 15.379692685104162 2.0965552394576101 2 19.005976923095481 2.0279887804555927 2 22.6122732635475 2.0824927510930831 2 25.067511923093832 1 2.0 27.612839702763299 2.0876824373714258 2 31.432313013087811 2.0420825741517925 2 34.11891584376049 1 2.0 37.0 2 2 39.820275159954257 1 2.0 42.317384195296519 2.103379208663529 2 45.816591266998245 2.0221792366258837 2 49.208247722755431 2.0312742141815265 2 52.70000000000001 2.0765656066234044 2 55.199081697334933 1 2.0 57.832056687886812 1 2.0 60.379692685104168 2.0965552394576106 2 64.005976923095488 2.0279887804555927 2 67.612273263547507 2.0824927510930782 2 70.067511923093832 1 2.0 72.61283970276331 2.0876824373714227 2 76.432313013087821 2.042082574151793 2 79.11891584376049 1 2.0 82.0 2 2 85.0 1 2.0 88.0 2 2 91.0 1 2.0 93.939168133988559 2.0223510267094231 2 96.688914587250864 1 2.0 99.371917278760577 2.1738659255017985 2 </DataArray>
</Points>
<Cells>
<DataArray Name="connectivity" format="ascii" type="Int32">0</DataArray>
<DataArray Name="offsets" format="ascii" type="Int32">0</DataArray>
<DataArray Name="types" format="ascii" type="UInt8">1</DataArray>
</Cells>
<PointData>
<DataArray Name="Points" NumberOfComponents="3" format="ascii" type="Float32">1 1 2.0 4.0 1 2.0 7.0 1 2.0 10.0 1 2.0 12.832056687886809 1 2.0 15.379692685104162 2.0965552394576101 2 19.005976923095481 2.0279887804555927 2 22.6122732635475 2.0824927510930831 2 25.067511923093832 1 2.0 27.612839702763299 2.0876824373714258 2 31.432313013087811 2.0420825741517925 2 34.11891584376049 1 2.0 37.0 2 2 39.820275159954257 1 2.0 42.317384195296519 2.103379208663529 2 45.816591266998245 2.0221792366258837 2 49.208247722755431 2.0312742141815265 2 52.70000000000001 2.0765656066234044 2 55.199081697334933 1 2.0 57.832056687886812 1 2.0 60.379692685104168 2.0965552394576106 2 64.005976923095488 2.0279887804555927 2 67.612273263547507 2.0824927510930782 2 70.067511923093832 1 2.0 72.61283970276331 2.0876824373714227 2 76.432313013087821 2.042082574151793 2 79.11891584376049 1 2.0 82.0 2 2 85.0 1 2.0 88.0 2 2 91.0 1 2.0 93.939168133988559 2.0223510267094231 2 96.688914587250864 1 2.0 99.371917278760577 2.1738659255017985 2 </DataArray>
<DataArray Name="forces" NumberOfComponents="3" format="ascii" type="Float32">0.0 0.0 0.0 0.0 0.0 0.0 0.0 0.0 0.0 0.0 0.0 0.0 -0.2194596704728031 -0.091743473408031392 0.0 -0.22186588630274565 0.096129358403078902 0.0 -0.013003807958322622 -0.006141606154517908 0.0 0.17382928511956824 0.11953827080984203 0.0 0.080484994355239758 -0.20018190477721864 0.0 -0.0072864534354057653 0.08426179843644685 0.0 0.075683449818016946 0.048756411071755663 0.0 0.13161808887645218 -0.050618854381355501 0.0 0.0 0.0 0.0 -0.24345871451744003 -0.10320204740947372 0.0 -0.30973891800530706 0.11006980377982696 0.0 -0.1473710313627481 -0.0082508879559097265 0.0 0.13672752998478699 -0.00030102783336829315 0.0 0.30802296591918688 0.10759278447491311 0.0 0.25581816798152135 -0.10590862505598833 0.0 -0.21945967047280593 -0.091743473408032697 0.0 -0.22186588630274104 0.096129358403080192 0.0 -0.013003807958330948 -0.0061416061545174613 0.0 0.1738292851195794 0.11953827080983889 0.0 0.080484994355240341 -0.2001819047772134 0.0 -0.0072864534354145083 0.084261798436444255 0.0 0.075683449818014309 0.048756411071758217 0.0 0.13161808887645837 -0.050618854381357992 0.0 0.0 0.0 0.0 0.0 0.0 0.0 0.0 0.0 0.0 0.0 0.0 0.0 -0.080627767123750069 0.029881310750550494 0.0 -0.02719845584365814 -0.077213156539117603 0.0 0.10782622296740821 0.047331845788567112 0.0 </DataArray>
<DataArray Name="radii" format="ascii" type="Float32">1 1 1 1 1 2 2 2 1 2 2 1 2 1 2 2 2 2 1 1 2 2 2 1 2 2 1 2 1 2 1 2 1 2 </DataArray>
</PointData>
<CellData/>
</Piece>
</UnstructuredGrid>
</VTKFile>
