<?xml version="1.0" ?>
<VTKFile byte_order="LittleEndian" type="UnstructuredGrid" version="0.1">
<UnstructuredGrid>
<Piece NumberOfCells="0" NumberOfPoints="15">
<Points>
<DataArray NumberOfComponents="3" format="ascii" type="Float32">1.1962243024957124 1.1638771440886027 1.1999184194646972 3.4937173497696081 1.1662496219272025 1.1427479333782509 6.0096926555704364 1.1640458869124148 1.1855934745386718 8.1096369476019845 1 1.0 0.99899646910966777 1 3.3802090831243361 3.6456077266987559 1.16423792765715 3.6071520695909345 6.8934844999281308 1.1638088526306456 3.3923684268922258 8.8722912269786498 1.1638088526306456 4.7548122642024762 2.0731492677770831 1 5.0579536682756476 5.1779819015578941 1.1735782243852679 5.2842110161551936 7.2804569666720989 1 6.2461163916386528 1.1933070663767011 1.1653513841907681 7.0829866682099887 3.8397750049909836 1.1638088526306456 7.260668701355657 9.0 1 7.1091467270994873 6.0 1 8.0 </DataArray>
</Points>
<Cells>
<DataArray Name="connectivity" format="ascii" type="Int32">0</DataArray>
<DataArray Name="offsets" format="ascii" type="Int32">0</DataArray>
<DataArray Name="types" format="ascii" type="UInt8">1</DataArray>
</Cells>
<PointData>
<DataArray Name="Points" NumberOfComponents="3" format="ascii" type="Float32">1.1962243024957124 1.1638771440886027 1.1999184194646972 3.4937173497696081 1.1662496219272025 1.1427479333782509 6.0096926555704364 1.1640458869124148 1.1855934745386718 8.1096369476019845 1 1.0 0.99899646910966777 1 3.3802090831243361 3.6456077266987559 1.16423792765715 3.6071520695909345 6.8934844999281308 1.1638088526306456 3.3923684268922258 8.8722912269786498 1.1638088526306456 4.7548122642024762 2.0731492677770831 1 5.0579536682756476 5.1779819015578941 1.1735782243852679 5.2842110161551936 7.2804569666720989 1 6.2461163916386528 1.1933070663767011 1.1653513841907681 7.0829866682099887 3.8397750049909836 1.1638088526306456 7.260668701355657 9.0 1 7.1091467270994873 6.0 1 8.0 </DataArray>
<DataArray Name="forces" NumberOfComponents="3" format="ascii" type="Float32">-0.003077180651653575 5.5657306460525481e-05 -6.6487859395470181e-05 -0.083735751878184342 0.0019892186929664013 -0.046660239988922103 0.081499660609974808 0.00019318213517113909 -0.011741269356672116 0.0 0.0 0.0 -0.00081787426973702266 -1.2831024707072757e-05 -0.0011336818482387966 0.0036580370834084098 0.00034969469036328504 0.045113863132188271 0.0053794006108419425 0.0 0.011987930294862885 0.058917104638384822 0.0 0.040867116042168916 0.0043713450186539157 -0.0015427761395057544 -0.01056931807385717 -0.07625039818785255 0.0079620048237439775 -0.034885392515066775 0.07625039818785255 -0.0079620048237439775 0.034885392515066775 -0.0054547181878393568 0.0012571579863015709 0.012550615902823539 0.0 0.0 0.0 0.0 0.0 0.0 0.0 0.0 0.0 </DataArray>
<DataArray Name="radii" format="ascii" type="Float32">1.2 1.2 1.2 1 1 1.2 1.2 1.2 1 1.2 1 1.2 1.2 1 1 </DataArray>
</PointData>
<CellData/>
</Piece>
</UnstructuredGrid>
</VTKFile>
