<?xml version="1.0" ?>
<VTKFile byte_order="LittleEndian" type="UnstructuredGrid" version="0.1">
<UnstructuredGrid>
<Piece NumberOfCells="0" NumberOfPoints="63">
<Points>
<DataArray NumberOfComponents="3" format="ascii" type="Float32">0.92904738886717209 2.532240770113352 2.0 4.4709928981354023 1.1232605362302039 2.0 7.2878242174810328 1 2.0 8.9822920175934993 1.9976275227088494 2.0 12.51619053780802 1.1219546593112835 2.0 16.230096900573653 1.0 2.0 19.0 1.0 2.0 22.0 1.0 2.0 25.482926785227992 1.267275016118403 2.0 28.0 1.0 2.0 30.720045093369041 1.0 2.0 34.893478822784118 3.2941242474052239 2.0 36.798369989652713 1.0 2.0 38.748191586304834 4.5186533811466054 2.0 42.99806325194109 1.1888138550865415 2.0 46.525895310402731 2.376336081820039 2.0 48.303858119131895 1.4599351236965565 2.0 53.918729470057222 2.4011605240576483 2.0 55.213471484815869 1 2.0 58.0 1.0 2.0 60.250901270201581 1.1981817487790423 2.0 63.98295882351276 1.0 2.0 66.951042194753086 2.7501504441537103 2.0 69.934060938385286 2.4389394341222741 2.0 73.324365876062046 1.0 2.0 75.282687125730234 2.1185144273212728 2.0 79.085533714175327 1 2.0 82.0 1.0 2.0 84.994577022779467 1 2.0 88.721139652520492 1.9965204827483229 2.0 91.0 1.0 2.0 93.067468378734716 1.4651766960592676 2.0 96.92930528806005 1 2.0 99.798320160781856 1.2315177921938132 2.0 2.5432915889967935 1.3617578976423097 2.0 6.6832873129968178 4.2261862567790285 2.0 10.932026019125658 2.3310069979287085 2.0 13.83701150163308 3.0822746137199628 2.0 23.482848898120814 3.3617950789846476 2.0 33.114734080673188 1.4660299487533182 2.0 39.361198082522478 1.0634283243721172 2.0 43.061543826063811 3.4630609219886441 2.0 44.995674710239363 1.0880526356514348 2.0 48.595809744021281 4.309382005101793 2.0 51.738141752751332 1 2.0 62.730712427866308 3.0185185328538888 2.0 65.982990440556136 1.0 2.0 71.323141492754303 1 2.0 77.259618534574372 1.8159717833984854 2.0 86.721183525276714 2.0093659519293312 2.0 95.155935678953341 3.6837253279333333 2.0 98.254322028005063 3.3373682591222571 2.0 5.9318612379665741 2.4181700904715555 2.0 15.839800034668823 3.1231307155643973 2.0 25.347055895622965 4.094510973938398 2.0 32.882601575057009 3.4554326761790533 2.0 40.025019521914132 2.9631083772332429 2.0 41.43373103010132 4.6325944811958308 2.0 50.49777396064453 3.9124776192723458 2.0 52.054711928032589 2.8904917045901484 2.0 60.838156612387891 3.6774320739734847 2.0 95.052448563005754 1.6905706235170646 2.0 99.8485990769464 4.5510526475668609 2.0 </DataArray>
</Points>
<Cells>
<DataArray Name="connectivity" format="ascii" type="Int32">0</DataArray>
<DataArray Name="offsets" format="ascii" type="Int32">0</DataArray>
<DataArray Name="types" format="ascii" type="UInt8">1</DataArray>
</Cells>
<PointData>
<DataArray Name="Points" NumberOfComponents="3" format="ascii" type="Float32">0.92904738886717209 2.532240770113352 2.0 4.4709928981354023 1.1232605362302039 2.0 7.2878242174810328 1 2.0 8.9822920175934993 1.9976275227088494 2.0 12.51619053780802 1.1219546593112835 2.0 16.230096900573653 1.0 2.0 19.0 1.0 2.0 22.0 1.0 2.0 25.482926785227992 1.267275016118403 2.0 28.0 1.0 2.0 30.720045093369041 1.0 2.0 34.893478822784118 3.2941242474052239 2.0 36.798369989652713 1.0 2.0 38.748191586304834 4.5186533811466054 2.0 42.99806325194109 1.1888138550865415 2.0 46.525895310402731 2.376336081820039 2.0 48.303858119131895 1.4599351236965565 2.0 53.918729470057222 2.4011605240576483 2.0 55.213471484815869 1 2.0 58.0 1.0 2.0 60.250901270201581 1.1981817487790423 2.0 63.98295882351276 1.0 2.0 66.951042194753086 2.7501504441537103 2.0 69.934060938385286 2.4389394341222741 2.0 73.324365876062046 1.0 2.0 75.282687125730234 2.1185144273212728 2.0 79.085533714175327 1 2.0 82.0 1.0 2.0 84.994577022779467 1 2.0 88.721139652520492 1.9965204827483229 2.0 91.0 1.0 2.0 93.067468378734716 1.4651766960592676 2.0 96.92930528806005 1 2.0 99.798320160781856 1.2315177921938132 2.0 2.5432915889967935 1.3617578976423097 2.0 6.6832873129968178 4.2261862567790285 2.0 10.932026019125658 2.3310069979287085 2.0 13.83701150163308 3.0822746137199628 2.0 23.482848898120814 3.3617950789846476 2.0 33.114734080673188 1.4660299487533182 2.0 39.361198082522478 1.0634283243721172 2.0 43.061543826063811 3.4630609219886441 2.0 44.995674710239363 1.0880526356514348 2.0 48.595809744021281 4.309382005101793 2.0 51.738141752751332 1 2.0 62.730712427866308 3.0185185328538888 2.0 65.982990440556136 1.0 2.0 71.323141492754303 1 2.0 77.259618534574372 1.8159717833984854 2.0 86.721183525276714 2.0093659519293312 2.0 95.155935678953341 3.6837253279333333 2.0 98.254322028005063 3.3373682591222571 2.0 5.9318612379665741 2.4181700904715555 2.0 15.839800034668823 3.1231307155643973 2.0 25.347055895622965 4.094510973938398 2.0 32.882601575057009 3.4554326761790533 2.0 40.025019521914132 2.9631083772332429 2.0 41.43373103010132 4.6325944811958308 2.0 50.49777396064453 3.9124776192723458 2.0 52.054711928032589 2.8904917045901484 2.0 60.838156612387891 3.6774320739734847 2.0 95.052448563005754 1.6905706235170646 2.0 99.8485990769464 4.5510526475668609 2.0 </DataArray>
<DataArray Name="forces" NumberOfComponents="3" format="ascii" type="Float32">-0.075565680237735064 0.052099118296346163 0.0 0.017351159909921005 -0.081498369531502343 0.0 0.014325602577726727 -0.07188113061740585 0.0 0.013803892771536666 0.016829386630622879 0.0 0.0063972426593481239 -0.0048056905469871531 0.0 0.0 0.0 0.0 0.0 0.0 0.0 0.0 0.0 0.0 0.0 0.0 0.0 0.0 0.0 0.0 0.0 0.0 0.0 0.0 0.0 0.0 0.0 0.0 0.0 -0.020736773866817763 0.025942736010569779 0.0 -0.00236453397813496 0.00011714930267760615 0.0 0.0008760223012134285 0.0024532254687625464 0.0 0.0012691828899171181 -0.00065221860462866905 0.0 0.10650161992808298 5.0351589567315669e-05 0.0 0.029787365498649646 -0.030535772831757711 0.0 0.0 0.0 0.0 0.0 0.0 0.0 0.0 0.0 0.0 0.0 0.0 0.0 -4.0533557734587125e-05 4.1989597026879866e-05 0.0 0.0 0.0 0.0 -0.0004702912687259367 7.2002845725849384e-05 0.0 0.00047418703977033768 -0.00021192445439512393 0.0 0.0 0.0 0.0 -4.1481996265644775e-05 -2.4250175369324087e-05 0.0 4.1213107994324861e-05 -2.642322981972835e-07 0.0 0.0 0.0 0.0 -0.01551922325554193 -0.0017291947189978028 0.0 0.017212679418418298 -0.0063570667095872715 0.0 0.0 0.0 0.0 -0.029524924194343244 -0.040919093081577006 0.0 0.033215560923816868 0.081137188741214256 0.0 0.01545719897691168 0.0086318421650076367 0.0 0.0 0.0 0.0 0.0 0.0 0.0 0.0 0.0 0.0 -0.010514342641939914 -0.031395961063811678 0.0 0.0 0.0 0.0 0.00021932878700441343 -0.0019181561668114835 0.0 -0.13348809929752134 0.032833305208018582 0.0 -0.023526509587836787 -0.1749552010968457 0.0 0.0 0.0 0.0 0.0 0.0 0.0 4.0533557734587125e-05 -4.1989597026879866e-05 0.0 -3.8957710444009774e-06 0.00013992160866927453 0.0 2.6888827131991375e-07 2.4514407667521369e-05 0.0 0.00019353547783056789 0.003800067081433068 0.0 0.0 0.0 0.0 0.0045399466128172375 0.040406747944281424 0.0 0.0 0.0 0.0 0.0 0.0 0.0 0.0 0.0 0.0 0.031251116508757677 0.0054532250532418995 0.0 0.0 0.0 0.0 -0.034082526932849966 0.083904328020673921 0.0 0.054808150391475463 0.088702989110343591 0.0 0.0 0.0 0.0 -0.001886991640706936 0.0042861943471520069 0.0 0.0 0.0 0.0 </DataArray>
<DataArray Name="radii" format="ascii" type="Float32">1 1 1 1 1 1 1 1 1 1 1 1 1 1 1 1 1 1 1 1 1 1 1 1 1 1 1 1 1 1 1 1 1 1 1 1 1 1 1 1 1 1 1 1 1 1 1 1 1 1 1 1 1 1 1 1 1 1 1 1 1 1 1 </DataArray>
</PointData>
<CellData/>
</Piece>
</UnstructuredGrid>
</VTKFile>
