<?xml version="1.0" ?>
<VTKFile byte_order="LittleEndian" type="UnstructuredGrid" version="0.1">
<UnstructuredGrid>
<Piece NumberOfCells="0" NumberOfPoints="15">
<Points>
<DataArray NumberOfComponents="3" format="ascii" type="Float32">1.3474054211802684 1.3616512588967229 1.3607557822483933 3.7022421449741136 1.1515476494533645 1.1444904315007813 6.0131053065157918 1.3578347534147874 1.3399399600017874 8.6531009736936184 1.3509608755158462 1.3854344038004405 1.1301174471395374 1.1528506257652502 3.8109875299881106 3.5609395512265536 1.3602991170542598 3.6255656820693374 6.2422291405772077 1.3550598780528111 3.8742943905132057 8.6999999999999993 1.3553153669774267 4.3383953795522769 1.7962491822572468 1.3565423850657217 6.1057187733219909 4.645917511137843 1.3554102471161869 6.1715185628493296 7.1542168617929578 1.1525893254674635 6.2989398179102052 1.3239654679925053 1.3520415205656 8.6583075716315978 3.8693887430643406 1.3515662058704114 8.6535939289280552 8.869852537294026 1.1609910389451379 7.8813901013901386 6.4738689274276737 1.3586035015977338 8.6642268805422127 </DataArray>
</Points>
<Cells>
<DataArray Name="connectivity" format="ascii" type="Int32">0</DataArray>
<DataArray Name="offsets" format="ascii" type="Int32">0</DataArray>
<DataArray Name="types" format="ascii" type="UInt8">1</DataArray>
</Cells>
<PointData>
<DataArray Name="Points" NumberOfComponents="3" format="ascii" type="Float32">1.3474054211802684 1.3616512588967229 1.3607557822483933 3.7022421449741136 1.1515476494533645 1.1444904315007813 6.0131053065157918 1.3578347534147874 1.3399399600017874 8.6531009736936184 1.3509608755158462 1.3854344038004405 1.1301174471395374 1.1528506257652502 3.8109875299881106 3.5609395512265536 1.3602991170542598 3.6255656820693374 6.2422291405772077 1.3550598780528111 3.8742943905132057 8.6999999999999993 1.3553153669774267 4.3383953795522769 1.7962491822572468 1.3565423850657217 6.1057187733219909 4.645917511137843 1.3554102471161869 6.1715185628493296 7.1542168617929578 1.1525893254674635 6.2989398179102052 1.3239654679925053 1.3520415205656 8.6583075716315978 3.8693887430643406 1.3515662058704114 8.6535939289280552 8.869852537294026 1.1609910389451379 7.8813901013901386 6.4738689274276737 1.3586035015977338 8.6642268805422127 </DataArray>
<DataArray Name="forces" NumberOfComponents="3" format="ascii" type="Float32">-0.48015220968638472 0.099613841608283737 -0.35827262607107957 0.024429027109460849 -0.11193632368772878 -0.50676405385793033 0.034825248045952405 0.064771780286480354 -0.54830671841363776 0.48477524542747547 0.0020180186563399398 -0.13297384174496427 -0.63797948243837554 -0.10004104912976977 0.00076968948066591381 -0.032953267948694187 0.087269719684741856 0.031850151457730624 -0.060876197720838923 0.03943908314246599 0.051043821052666222 0.91293099110482767 0.041771520714122573 -0.05936389934516878 -0.044325907133419454 0.052973349108629081 0.013187377615998253 -0.0024770723817883478 0.042637710905265913 0.053423504039000758 0.068598843371238824 -0.10242654052811356 0.0095533106466119122 -0.69414280663793926 0.01188356221938295 0.53230789158550418 -0.025631470055547501 0.0075442670617303208 0.48927558653491388 0.63770546103021652 -0.025724694406592322 0.11868786549674137 -0.025875896925993236 0.071789920692151551 0.58634709708974087 </DataArray>
<DataArray Name="radii" format="ascii" type="Float32">1.4 1.2 1.4 1.4 1.2 1.4 1.4 1.4 1.4 1.4 1.2 1.4 1.4 1.2 1.4 </DataArray>
</PointData>
<CellData/>
</Piece>
</UnstructuredGrid>
</VTKFile>
