<?xml version="1.0" ?>
<VTKFile byte_order="LittleEndian" type="UnstructuredGrid" version="0.1">
<UnstructuredGrid>
<Piece NumberOfCells="0" NumberOfPoints="20">
<Points>
<DataArray NumberOfComponents="3" format="ascii" type="Float32">21.386083665250283 1.4 2 25.100997829985801 3.6393148695587669 2 37.257974080559912 3.4945040188455976 2 65.476989090630155 1.4 2 88.920651293390634 3.8253230701221423 2 18.908758879195979 1.4 2 22.625647387451878 3.7596933864846243 2 37.352607884784128 5.9968082876152424 2 61.687941351145874 3.5462154790474476 2 87.848891531484313 1.4 2 20.144746787727609 3.7415173376382778 2 26.404255888567249 5.9408589260104945 2 35.871731917739744 1.4 2 64.3913423646935 3.6283464097234757 2 90.026235374651634 1.4 2 16.447002908871966 1.4 2 23.849747850417316 1.4 2 34.870907591162947 3.848614844131601 2 63.027282166828975 1.4 2 85.733744287363649 1.4 2 </DataArray>
</Points>
<Cells>
<DataArray Name="connectivity" format="ascii" type="Int32">0</DataArray>
<DataArray Name="offsets" format="ascii" type="Int32">0</DataArray>
<DataArray Name="types" format="ascii" type="UInt8">1</DataArray>
</Cells>
<PointData>
<DataArray Name="Points" NumberOfComponents="3" format="ascii" type="Float32">21.386083665250283 1.4 2 25.100997829985801 3.6393148695587669 2 37.257974080559912 3.4945040188455976 2 65.476989090630155 1.4 2 88.920651293390634 3.8253230701221423 2 18.908758879195979 1.4 2 22.625647387451878 3.7596933864846243 2 37.352607884784128 5.9968082876152424 2 61.687941351145874 3.5462154790474476 2 87.848891531484313 1.4 2 20.144746787727609 3.7415173376382778 2 26.404255888567249 5.9408589260104945 2 35.871731917739744 1.4 2 64.3913423646935 3.6283464097234757 2 90.026235374651634 1.4 2 16.447002908871966 1.4 2 23.849747850417316 1.4 2 34.870907591162947 3.848614844131601 2 63.027282166828975 1.4 2 85.733744287363649 1.4 2 </DataArray>
<DataArray Name="forces" NumberOfComponents="3" format="ascii" type="Float32">-0.0057367643668474466 -0.25241247452519522 0.0 -0.013159040189156077 0.26434804986035199 0.0 0.029146391236373609 0.28380578006648971 0.0 -0.01774953064575694 -0.37386831283869842 0.0 0.004306071634379495 0.25866333174612843 0.0 -0.0031130678334196915 -0.23336680022870065 0.0 -0.004358051576377614 0.26397153830918535 0.0 0.011539074399413258 0.29742819039916862 0.0 -0.03280613440448861 0.28941168795928018 0.0 0.002308923983495248 -0.13619803535276634 0.0 0.0016120284759871262 0.26002097647183237 0.0 -0.034724918993214428 0.28238507710269223 0.0 0.0058001413925836132 -0.38669072843778579 0.0 -0.033282957509842392 0.26511754725553655 0.0 -0.0015866983008919755 -0.12246529639336211 0.0 -0.012246667861131016 -0.3833070163658478 0.0 -0.014043780803166372 -0.33199747705870747 0.0 0.00022778814858117474 0.24368642008309885 0.0 -0.013459020990244083 -0.39300619411693694 0.0 0.0040270970463185535 -0.54092819684036042 0.0 </DataArray>
<DataArray Name="radii" format="ascii" type="Float32">1.4 1.4 1.4 1.4 1.4 1.4 1.4 1.4 1.4 1.4 1.4 1.4 1.4 1.4 1.4 1.4 1.4 1.4 1.4 1.4 </DataArray>
</PointData>
<CellData/>
</Piece>
</UnstructuredGrid>
</VTKFile>
