<?xml version="1.0" ?>
<VTKFile byte_order="LittleEndian" type="UnstructuredGrid" version="0.1">
<UnstructuredGrid>
<Piece NumberOfCells="0" NumberOfPoints="32">
<Points>
<DataArray NumberOfComponents="3" format="ascii" type="Float32">1.5999999999999999 1.5999999999999999 2 12.597747760246703 3.7208041541969852 2 27.59785327797216 3.836749786964305 2 48.094362684039901 3.8199442375026389 2 51.656686877588591 1.5999999999999999 2 74.382695709308251 1.5999999999999999 2 83.542936760101384 1.5999999999999999 2 92.045804342968879 1.5999999999999999 2 4.3543336461886568 4.2490449304856712 2 11.245451228267843 1.5999999999999999 2 28.735749726443494 1.5999999999999999 2 46.965477930741763 6.2376072576800432 2 52.176744198852617 6.3558501310697784 2 77.345882554192755 3.8976134144272696 2 84.676626696580385 6.2600522119206703 2 96.42825603251427 1.5999999999999999 2 3.7674337623204681 1.5999999999999999 2 11.314583293240808 6.1394705364401165 2 26.240443508809999 1.5999999999999999 2 49.347745968801995 1.5999999999999999 2 50.677797029908838 4.0068645270697569 2 74.856996581251749 3.9831825032340804 2 82.938864660592401 4.0270151346386038 2 92.313157933919555 4.1117726548430484 2 1.5999999999999999 4.1334704412558212 2 8.6058376765193039 1.5999999999999999 2 30.191360091385217 3.549016403926526 2 43.826169904944756 6.2544629930311908 2 53.514190403837432 3.8679882777867376 2 76.629886554238041 1.5999999999999999 2 86.070489770244947 3.8792477656248296 2 94.126168877423993 1.5999999999999999 2 </DataArray>
</Points>
<Cells>
<DataArray Name="connectivity" format="ascii" type="Int32">0</DataArray>
<DataArray Name="offsets" format="ascii" type="Int32">0</DataArray>
<DataArray Name="types" format="ascii" type="UInt8">1</DataArray>
</Cells>
<PointData>
<DataArray Name="Points" NumberOfComponents="3" format="ascii" type="Float32">1.5999999999999999 1.5999999999999999 2 12.597747760246703 3.7208041541969852 2 27.59785327797216 3.836749786964305 2 48.094362684039901 3.8199442375026389 2 51.656686877588591 1.5999999999999999 2 74.382695709308251 1.5999999999999999 2 83.542936760101384 1.5999999999999999 2 92.045804342968879 1.5999999999999999 2 4.3543336461886568 4.2490449304856712 2 11.245451228267843 1.5999999999999999 2 28.735749726443494 1.5999999999999999 2 46.965477930741763 6.2376072576800432 2 52.176744198852617 6.3558501310697784 2 77.345882554192755 3.8976134144272696 2 84.676626696580385 6.2600522119206703 2 96.42825603251427 1.5999999999999999 2 3.7674337623204681 1.5999999999999999 2 11.314583293240808 6.1394705364401165 2 26.240443508809999 1.5999999999999999 2 49.347745968801995 1.5999999999999999 2 50.677797029908838 4.0068645270697569 2 74.856996581251749 3.9831825032340804 2 82.938864660592401 4.0270151346386038 2 92.313157933919555 4.1117726548430484 2 1.5999999999999999 4.1334704412558212 2 8.6058376765193039 1.5999999999999999 2 30.191360091385217 3.549016403926526 2 43.826169904944756 6.2544629930311908 2 53.514190403837432 3.8679882777867376 2 76.629886554238041 1.5999999999999999 2 86.070489770244947 3.8792477656248296 2 94.126168877423993 1.5999999999999999 2 </DataArray>
<DataArray Name="forces" NumberOfComponents="3" format="ascii" type="Float32">-1.0323881768670504 -0.66784569040352837 0.0 -0.01829781808273484 0.67295205438864103 0.0 -0.0088454395739042679 0.67127117384338675 0.0 0.0065264266898336087 0.66528058259489287 0.0 0.0064960200088215181 -0.76794588101637207 0.0 -0.039265906147257446 -0.77350530751541269 0.0 -0.0070579242954300625 -0.67310783292669052 0.0 -0.011969884013855792 -0.66990934133103164 0.0 -0.019738911200753051 0.64922313193951409 0.0 -0.015755113466599857 -1.10597144899095 0.0 -0.026608165949363327 -1.2325086318736473 0.0 -0.02062406816483596 0.69028781854758237 0.0 0.04481839704305618 0.68203447847182663 0.0 0.1450026024689724 0.61793093627122142 0.0 0.0045319434757110644 0.67498332011475815 0.0 -0.022557184444832457 -0.75235913312837133 0.0 -0.0021903079206924969 -0.47607525904017972 0.0 -0.0042193603290126558 0.69273461873850462 0.0 -0.019749733258318525 -1.0969487240797819 0.0 0.01105735158071075 -0.96474820155600893 0.0 0.017187770853672624 0.66623578716107612 0.0 0.16057436831297925 0.81659529675674891 0.0 0.11982684481699983 0.6061831558087768 0.0 -0.10803576074904073 0.64204934784464407 0.0 -0.44125105150785765 0.64933963613825818 0.0 -0.010716609344762651 -1.0756360147442547 0.0 -0.010025052348856256 0.63001444426111464 0.0 -0.033288486078169074 0.68262610825751457 0.0 0.01373724764364137 0.64979924405490275 0.0 -0.029233087824045378 -0.94714040462215632 0.0 0.13309976364546888 0.7001928446480804 0.0 -0.032835104450868464 -0.58365528997344351 0.0 </DataArray>
<DataArray Name="radii" format="ascii" type="Float32">1.5999999999999999 1.5999999999999999 1.5999999999999999 1.5999999999999999 1.5999999999999999 1.5999999999999999 1.5999999999999999 1.5999999999999999 1.5999999999999999 1.5999999999999999 1.5999999999999999 1.5999999999999999 1.5999999999999999 1.5999999999999999 1.5999999999999999 1.5999999999999999 1.5999999999999999 1.5999999999999999 1.5999999999999999 1.5999999999999999 1.5999999999999999 1.5999999999999999 1.5999999999999999 1.5999999999999999 1.5999999999999999 1.5999999999999999 1.5999999999999999 1.5999999999999999 1.5999999999999999 1.5999999999999999 1.5999999999999999 1.5999999999999999 </DataArray>
</PointData>
<CellData/>
</Piece>
</UnstructuredGrid>
</VTKFile>
