<?xml version="1.0" ?>
<VTKFile byte_order="LittleEndian" type="UnstructuredGrid" version="0.1">
<UnstructuredGrid>
<Piece NumberOfCells="0" NumberOfPoints="23">
<Points>
<DataArray NumberOfComponents="3" format="ascii" type="Float32">0 0 0 6.989281160894695 1.5999999999999999 2 16.25050077846241 4.3303938311528212 2 31.643130727479445 4.324811384695181 2 40.449366589859459 4.4797111671556946 2 42.32351233373894 1.5999999999999999 2 54.220181601024919 1.5999999999999999 2 59.962715384283989 1.5999999999999999 2 68.634930884966124 1.5999999999999999 2 71.499312073302491 1.5999999999999999 2 80.289639486527378 1.5999999999999999 2 96.747425351758537 4.3494222067194821 2 8.558946959074925 4.3189207888126813 2 14.633015692737494 1.5999999999999999 2 33.107128447293029 1.5999999999999999 2 39.195141441325767 1.5999999999999999 2 45.289572746867641 1.5999999999999999 2 57.0811196054972 1.5999999999999999 2 61.411194728615421 4.3965819142193601 2 67.164959599875147 4.3965060345579188 2 72.946481779673007 4.3915790320948602 2 78.779807190386236 4.3835095456649666 2 98.4 1.5999999999999999 2 </DataArray>
</Points>
<Cells>
<DataArray Name="connectivity" format="ascii" type="Int32">0</DataArray>
<DataArray Name="offsets" format="ascii" type="Int32">0</DataArray>
<DataArray Name="types" format="ascii" type="UInt8">1</DataArray>
</Cells>
<PointData>
<DataArray Name="Points" NumberOfComponents="3" format="ascii" type="Float32">0 0 0 6.989281160894695 1.5999999999999999 2 16.25050077846241 4.3303938311528212 2 31.643130727479445 4.324811384695181 2 40.449366589859459 4.4797111671556946 2 42.32351233373894 1.5999999999999999 2 54.220181601024919 1.5999999999999999 2 59.962715384283989 1.5999999999999999 2 68.634930884966124 1.5999999999999999 2 71.499312073302491 1.5999999999999999 2 80.289639486527378 1.5999999999999999 2 96.747425351758537 4.3494222067194821 2 8.558946959074925 4.3189207888126813 2 14.633015692737494 1.5999999999999999 2 33.107128447293029 1.5999999999999999 2 39.195141441325767 1.5999999999999999 2 45.289572746867641 1.5999999999999999 2 57.0811196054972 1.5999999999999999 2 61.411194728615421 4.3965819142193601 2 67.164959599875147 4.3965060345579188 2 72.946481779673007 4.3915790320948602 2 78.779807190386236 4.3835095456649666 2 98.4 1.5999999999999999 2 </DataArray>
<DataArray Name="forces" NumberOfComponents="3" format="ascii" type="Float32">0 0 0 0.0063940093533308012 -0.10685372225797232 0.0 -0.021766226711914707 0.1212812975398877 0.0 -0.004806909796262188 0.053370851008286035 0.0 0.039288113418271223 0.098792728564437604 0.0 0.074839100168638595 0.0 0.0 0.034183558559882143 -0.08574946241634436 0.0 -0.0058777430385341667 -0.056662252895855698 0.0 0.026796597713060335 -0.053408274488295784 0.0 -0.015662904079980014 -0.067663542386406997 0.0 0.038303835140941399 -0.04835127738687145 0.0 0.048088191976895567 0.092708664601578034 0.0 0.0059736256212316527 0.11316719905736011 0.0 -0.037447297254004204 -0.10022355593421664 0.0 -0.19484968553582263 -0.031022850208662512 0.0 -0.15488151824552254 -0.098792728564437604 0.0 -0.11025519601223999 -0.0091773867825349961 0.0 -0.031208947218303251 0.0 0.0 0.00010522750533234829 0.1131008936861978 0.0 0.0049133103229009774 0.11729036148559847 0.0 0.0080978991855496403 0.11821171334617486 0.0 0.010064806913627732 0.1176503208327643 0.0 0.09459532902640122 0.0 0.0 </DataArray>
<DataArray Name="radii" format="ascii" type="Float32">0 1.5999999999999999 1.5999999999999999 1.5999999999999999 1.5999999999999999 1.5999999999999999 1.5999999999999999 1.5999999999999999 1.5999999999999999 1.5999999999999999 1.5999999999999999 1.5999999999999999 1.5999999999999999 1.5999999999999999 1.5999999999999999 1.5999999999999999 1.5999999999999999 1.5999999999999999 1.5999999999999999 1.5999999999999999 1.5999999999999999 1.5999999999999999 1.5999999999999999 </DataArray>
</PointData>
<CellData/>
</Piece>
</UnstructuredGrid>
</VTKFile>
