<?xml version="1.0" ?>
<VTKFile byte_order="LittleEndian" type="UnstructuredGrid" version="0.1">
<UnstructuredGrid>
<Piece NumberOfCells="0" NumberOfPoints="40">
<Points>
<DataArray NumberOfComponents="3" format="ascii" type="Float32">20.774008761838857 1.4 2 26.007141864485483 3.4148832373640596 2 37.151088689346068 6.0183577899846732 2 64.710767944352 1.4 2 88.944085224945866 7.3860477263453266 2 18.738861632666065 1.4 2 21.918269143621295 7.0403263812609183 2 34.902828509362607 7.5513558263258371 2 62.408961119980439 4.3642769342319472 2 88.019509566496296 1.4 2 19.218879754181749 7.0527296039641847 2 27.101413775970741 7.6638960598661807 2 35.103883129298659 1.4 2 64.724584227303396 4.6834419829396552 2 89.844006859367212 3.0706103352526943 2 17.211806138228443 1.4 2 22.98032356089492 1.4 2 35.37725222366327 5.0545698218963526 2 62.520364589632784 1.4 2 86.009103888148019 3.2867623222926139 2 21.689911533682398 2.7413992468574242 2 23.98440839705086 5.3578333985883315 2 36.955256559463209 3.4252174500440642 2 66.596462361278142 1.4 2 89.729185283813123 5.1251242952298677 2 19.415806974826403 2.9247549446465744 2 22.270326990025644 4.4805916932755423 2 37.364370059580089 8.5282729062575875 2 60.436803776619719 4.8689814736317105 2 87.950132152626651 3.3249078613028367 2 20.412303869006386 4.9655088102022935 2 24.49923807207648 7.6987553571773546 2 36.896610493121543 1.4 2 65.798077003844071 3.2027179691746217 2 89.974485243928783 1.4 2 15.678673790542046 1.4 2 24.077599193246872 3.1388308791594106 2 35.056578786551491 3.0963846980465228 2 63.617376927756276 2.7336440944913849 2 86.21415367155133 1.4 2 </DataArray>
</Points>
<Cells>
<DataArray Name="connectivity" format="ascii" type="Int32">0</DataArray>
<DataArray Name="offsets" format="ascii" type="Int32">0</DataArray>
<DataArray Name="types" format="ascii" type="UInt8">1</DataArray>
</Cells>
<PointData>
<DataArray Name="Points" NumberOfComponents="3" format="ascii" type="Float32">20.774008761838857 1.4 2 26.007141864485483 3.4148832373640596 2 37.151088689346068 6.0183577899846732 2 64.710767944352 1.4 2 88.944085224945866 7.3860477263453266 2 18.738861632666065 1.4 2 21.918269143621295 7.0403263812609183 2 34.902828509362607 7.5513558263258371 2 62.408961119980439 4.3642769342319472 2 88.019509566496296 1.4 2 19.218879754181749 7.0527296039641847 2 27.101413775970741 7.6638960598661807 2 35.103883129298659 1.4 2 64.724584227303396 4.6834419829396552 2 89.844006859367212 3.0706103352526943 2 17.211806138228443 1.4 2 22.98032356089492 1.4 2 35.37725222366327 5.0545698218963526 2 62.520364589632784 1.4 2 86.009103888148019 3.2867623222926139 2 21.689911533682398 2.7413992468574242 2 23.98440839705086 5.3578333985883315 2 36.955256559463209 3.4252174500440642 2 66.596462361278142 1.4 2 89.729185283813123 5.1251242952298677 2 19.415806974826403 2.9247549446465744 2 22.270326990025644 4.4805916932755423 2 37.364370059580089 8.5282729062575875 2 60.436803776619719 4.8689814736317105 2 87.950132152626651 3.3249078613028367 2 20.412303869006386 4.9655088102022935 2 24.49923807207648 7.6987553571773546 2 36.896610493121543 1.4 2 65.798077003844071 3.2027179691746217 2 89.974485243928783 1.4 2 15.678673790542046 1.4 2 24.077599193246872 3.1388308791594106 2 35.056578786551491 3.0963846980465228 2 63.617376927756276 2.7336440944913849 2 86.21415367155133 1.4 2 </DataArray>
<DataArray Name="forces" NumberOfComponents="3" format="ascii" type="Float32">0.011354409733847826 -1.5427619642640114 0.0 0.040032876588099287 0.49643023405345577 0.0 -0.067832136392449893 0.49198489750154806 0.0 0.018877057388668961 -1.4336799629256491 0.0 0.064526164513803413 0.55316950208278826 0.0 0.09806152583804062 -1.0857496578466803 0.0 -0.028401950323428807 0.45863147205643595 0.0 -0.078742355534332564 0.48013131880646825 0.0 0.05508890081135509 0.353485260563841 0.0 -0.028031792476957529 -1.1295557841802828 0.0 -0.043846413956039637 0.55836231461087349 0.0 0.0085149838577699422 0.50940862096495476 0.0 0.00083471099547695327 -1.2505516864116293 0.0 0.016978780631523284 0.53249319944486218 0.0 0.11015738363559313 0.49671561665409081 0.0 0.034456996214015545 -0.84317060167787439 0.0 -0.0017623102624741427 -1.3129499273189436 0.0 -0.046984512879601315 0.45565184773444317 0.0 0.0083057330828315568 -1.4812823235871106 0.0 0.07133214468208178 0.45860120601216892 0.0 -0.034176652232957683 0.4220261785651635 0.0 -0.034001781846994636 0.46867149038950057 0.0 -0.007818199248788904 0.41594459776669213 0.0 -0.0276603748812142 -1.6229170770317158 0.0 0.018151025670554488 0.50135992246686611 0.0 -0.035668275034503483 0.51496826209402402 0.0 -0.034203122402978681 0.4101286158352821 0.0 -0.092974825877823658 0.52414047721900325 0.0 0.075520673921965958 0.41353651545932296 0.0 0.087177947311066845 0.35877545665746441 0.0 -0.026921264861390348 0.49368061314213518 0.0 -0.031505100747208581 0.51226137484649992 0.0 0.010868169485095891 -1.2714627021593263 0.0 0.0054593683342264443 0.51964286329856513 0.0 -0.089362480782293779 -1.274718291410595 0.0 -0.038453145217810847 -0.53876325603315545 0.0 0.014919580267833299 0.4438213876609754 0.0 -0.0086371775319230848 0.40830565549542697 0.0 0.03553850448739182 0.42105843060769271 0.0 -0.062966832758072092 -1.0619674829642236 0.0 </DataArray>
<DataArray Name="radii" format="ascii" type="Float32">1.4 1.4 1.4 1.4 1.4 1.4 1.4 1.4 1.4 1.4 1.4 1.4 1.4 1.4 1.4 1.4 1.4 1.4 1.4 1.4 1.4 1.4 1.4 1.4 1.4 1.4 1.4 1.4 1.4 1.4 1.4 1.4 1.4 1.4 1.4 1.4 1.4 1.4 1.4 1.4 </DataArray>
</PointData>
<CellData/>
</Piece>
</UnstructuredGrid>
</VTKFile>
