<?xml version="1.0" ?>
<VTKFile byte_order="LittleEndian" type="UnstructuredGrid" version="0.1">
<UnstructuredGrid>
<Piece NumberOfCells="0" NumberOfPoints="23">
<Points>
<DataArray NumberOfComponents="3" format="ascii" type="Float32">0 0 0 7.7731291772690128 1 2 16.616359067305524 1.9271481126835943 2 31.39468073819884 1.851380966752773 2 39.538259141481191 2.7714203044377186 2 43.550223001883424 1.203187878340138 2 55.515425266181936 1.551648025260125 2 59.900825792422431 1 2 68.086855803202781 1 2 71.804778459676427 1 2 80.348542603528443 1.0640615453001177 2 95.498058842294526 2.673545645507752 2 8.6323243891487671 2.8489671797079255 2 14.740917520951546 1 2 33.203408458721277 1 2 40.558216077060983 1 2 45.34737882592222 2.0857609117316027 2 57.451621000312123 1.0418928935719616 2 60.258129099852155 3.022404536114645 2 67.77474467583761 3.0307374762821229 2 72.532013795417924 2.9097041999570559 2 78.95588496990166 2.5025360604193034 2 96.619554187427696 1 2 </DataArray>
</Points>
<Cells>
<DataArray Name="connectivity" format="ascii" type="Int32">0</DataArray>
<DataArray Name="offsets" format="ascii" type="Int32">0</DataArray>
<DataArray Name="types" format="ascii" type="UInt8">1</DataArray>
</Cells>
<PointData>
<DataArray Name="Points" NumberOfComponents="3" format="ascii" type="Float32">0 0 0 7.7731291772690128 1 2 16.616359067305524 1.9271481126835943 2 31.39468073819884 1.851380966752773 2 39.538259141481191 2.7714203044377186 2 43.550223001883424 1.203187878340138 2 55.515425266181936 1.551648025260125 2 59.900825792422431 1 2 68.086855803202781 1 2 71.804778459676427 1 2 80.348542603528443 1.0640615453001177 2 95.498058842294526 2.673545645507752 2 8.6323243891487671 2.8489671797079255 2 14.740917520951546 1 2 33.203408458721277 1 2 40.558216077060983 1 2 45.34737882592222 2.0857609117316027 2 57.451621000312123 1.0418928935719616 2 60.258129099852155 3.022404536114645 2 67.77474467583761 3.0307374762821229 2 72.532013795417924 2.9097041999570559 2 78.95588496990166 2.5025360604193034 2 96.619554187427696 1 2 </DataArray>
<DataArray Name="forces" NumberOfComponents="3" format="ascii" type="Float32">0 0 0 -0.004902332960131723 -0.010898002608468479 0.0 0.0080690773571888488 0.0091180467515031317 0.0 0.0 0.0 0.0 -0.0059283383927512378 0.010644351870753559 0.0 0.0 0.0 0.0 0.0 0.0 0.0 -0.0030792689326192371 -0.018236665241129612 0.0 0.0027454809560555639 -0.018705844346969105 0.0 -0.0047797302817739725 -0.013014559405768587 0.0 0.0 0.0 0.0 -0.0028665322123579556 0.0043592515637264047 0.0 0.004902332960131723 0.010898002608468479 0.0 -0.016632217445775678 -0.0084703514874286661 0.0 0.0 0.0 0.0 0.0059283383927512378 -0.010644351870753559 0.0 0.0 0.0 0.0 0.0 0.0 0.0 0.0030792689326192371 0.018236665241129612 0.0 -0.0027454809560555639 0.018705844346969105 0.0 0.0047797302817739725 0.013014559405768587 0.0 0.0 0.0 0.0 0.0028665322123579556 -0.0043592515637264047 0.0 </DataArray>
<DataArray Name="radii" format="ascii" type="Float32">0 1 1 1 1 1 1 1 1 1 1 1 1 1 1 1 1 1 1 1 1 1 1 </DataArray>
</PointData>
<CellData/>
</Piece>
</UnstructuredGrid>
</VTKFile>
