<?xml version="1.0" ?>
<VTKFile byte_order="LittleEndian" type="UnstructuredGrid" version="0.1">
<UnstructuredGrid>
<Piece NumberOfCells="0" NumberOfPoints="40">
<Points>
<DataArray NumberOfComponents="3" format="ascii" type="Float32">20.489247265925272 1.5999999999999999 2 25.949230155988673 3.5305700524715053 2 37.012418844002902 6.0713174069928444 2 64.965151073205291 1.5999999999999999 2 89.519578978688912 7.6162114806188637 2 18.727722441706504 1.5999999999999999 2 21.763757213751052 7.0880913490410755 2 34.789126538543762 7.7047355860956035 2 62.688899249868463 3.9151605136112537 2 88.060515068544134 1.5999999999999999 2 19.131223891441021 7.3591451721879748 2 27.079595196903799 7.915216130583044 2 35.115793809024488 1.5999999999999999 2 64.494734659315611 4.2827578756743581 2 89.791382993861674 3.199169562255451 2 17.231843498643062 1.5999999999999999 2 23.463119017316217 1.5999999999999999 2 35.421882476676139 4.9287700593498363 2 62.294086177361365 1.5999999999999999 2 85.944295133976027 3.4360877895348723 2 21.924369649269551 1.5999999999999999 2 23.615698806725934 5.3426794870275041 2 36.84113672076672 3.4261275536205074 2 66.499670219189824 1.5999999999999999 2 89.748000834633459 5.1477027904964112 2 19.591312430732092 3.0407238519478699 2 21.995889447713132 3.900868213205841 2 37.343051368448428 8.8239024405562319 2 60.551779726752741 4.5668566967050017 2 87.786032381362872 3.3703133297538068 2 20.507459153480916 4.9277466862764259 2 24.361482558690295 7.8897689470620378 2 36.874957260316208 1.5999999999999999 2 65.742914726630758 3.5171266167517108 2 89.994359574135217 1.5999999999999999 2 15.657943850677317 1.5999999999999999 2 23.998667832762806 3.2986575038222701 2 34.776278135390939 3.0623553903657816 2 63.662751289241882 1.5999999999999999 2 86.24176892398475 1.5999999999999999 2 </DataArray>
</Points>
<Cells>
<DataArray Name="connectivity" format="ascii" type="Int32">0</DataArray>
<DataArray Name="offsets" format="ascii" type="Int32">0</DataArray>
<DataArray Name="types" format="ascii" type="UInt8">1</DataArray>
</Cells>
<PointData>
<DataArray Name="Points" NumberOfComponents="3" format="ascii" type="Float32">20.489247265925272 1.5999999999999999 2 25.949230155988673 3.5305700524715053 2 37.012418844002902 6.0713174069928444 2 64.965151073205291 1.5999999999999999 2 89.519578978688912 7.6162114806188637 2 18.727722441706504 1.5999999999999999 2 21.763757213751052 7.0880913490410755 2 34.789126538543762 7.7047355860956035 2 62.688899249868463 3.9151605136112537 2 88.060515068544134 1.5999999999999999 2 19.131223891441021 7.3591451721879748 2 27.079595196903799 7.915216130583044 2 35.115793809024488 1.5999999999999999 2 64.494734659315611 4.2827578756743581 2 89.791382993861674 3.199169562255451 2 17.231843498643062 1.5999999999999999 2 23.463119017316217 1.5999999999999999 2 35.421882476676139 4.9287700593498363 2 62.294086177361365 1.5999999999999999 2 85.944295133976027 3.4360877895348723 2 21.924369649269551 1.5999999999999999 2 23.615698806725934 5.3426794870275041 2 36.84113672076672 3.4261275536205074 2 66.499670219189824 1.5999999999999999 2 89.748000834633459 5.1477027904964112 2 19.591312430732092 3.0407238519478699 2 21.995889447713132 3.900868213205841 2 37.343051368448428 8.8239024405562319 2 60.551779726752741 4.5668566967050017 2 87.786032381362872 3.3703133297538068 2 20.507459153480916 4.9277466862764259 2 24.361482558690295 7.8897689470620378 2 36.874957260316208 1.5999999999999999 2 65.742914726630758 3.5171266167517108 2 89.994359574135217 1.5999999999999999 2 15.657943850677317 1.5999999999999999 2 23.998667832762806 3.2986575038222701 2 34.776278135390939 3.0623553903657816 2 63.662751289241882 1.5999999999999999 2 86.24176892398475 1.5999999999999999 2 </DataArray>
<DataArray Name="forces" NumberOfComponents="3" format="ascii" type="Float32">-0.0052138958223884035 -1.6474471219360136 0.0 -0.029862689877597104 0.95299651187895473 0.0 -0.05132557660171333 0.95557229568392898 0.0 0.035478690080908537 -1.6585997845609046 0.0 0.087770535587267579 0.92314315827315341 0.0 0.0096375147489070612 -1.8567817286435111 0.0 -0.034715012572332948 0.8599147781771791 0.0 -0.003697222111238796 0.8990945574978717 0.0 0.098540871550071241 0.74965288497324345 0.0 0.013463712525780602 -2.2314434573985067 0.0 -0.034987396364131118 0.93911167747994007 0.0 -0.02763300678321462 0.9458711866114583 0.0 0.0318000176707815 -2.3715417337079652 0.0 -0.10655384458967988 0.77956387147112038 0.0 0.00096098405553253843 0.87900905091247961 0.0 -0.007027687324803189 -1.5633562023620735 0.0 0.07775308222534616 -1.7852123178156778 0.0 0.016577824111897954 0.81435897972381743 0.0 -0.037572544543010622 -2.0977309892486273 0.0 -0.026397442478511363 0.93303203160487458 0.0 0.037627574574225442 -1.4626491075494346 0.0 -0.10523081837818904 0.92058136388128786 0.0 -0.063428653025570769 0.85417953923080703 0.0 -0.004282550349327563 -2.1890400045721243 0.0 -0.0063053258481766683 0.83890592609895909 0.0 -0.016254611507490802 0.90418826721856038 0.0 -0.057666247303178819 0.72053397844976985 0.0 0.01786632223326784 0.96324924674609558 0.0 0.11971517861088854 0.84720292244247286 0.0 -0.06489558927330219 0.85640073321232923 0.0 0.036564376492014938 0.97034925642350178 0.0 -0.047075146712560828 0.93099224742729514 0.0 -0.0039244492270547049 -2.3669498724518734 0.0 0.090176652027950166 1.033064005515989 0.0 -0.0031623573377510539 -2.1651689428744629 0.0 -0.019975837416066233 -1.8811444814518041 0.0 -0.0016845581681691479 0.95467558592386448 0.0 -0.19083517362063618 0.83182032631598801 0.0 0.043709309253991968 -1.5003224703462399 0.0 0.0077243109341978422 -2.2117058655248409 0.0 </DataArray>
<DataArray Name="radii" format="ascii" type="Float32">1.5999999999999999 1.5999999999999999 1.5999999999999999 1.5999999999999999 1.5999999999999999 1.5999999999999999 1.5999999999999999 1.5999999999999999 1.5999999999999999 1.5999999999999999 1.5999999999999999 1.5999999999999999 1.5999999999999999 1.5999999999999999 1.5999999999999999 1.5999999999999999 1.5999999999999999 1.5999999999999999 1.5999999999999999 1.5999999999999999 1.5999999999999999 1.5999999999999999 1.5999999999999999 1.5999999999999999 1.5999999999999999 1.5999999999999999 1.5999999999999999 1.5999999999999999 1.5999999999999999 1.5999999999999999 1.5999999999999999 1.5999999999999999 1.5999999999999999 1.5999999999999999 1.5999999999999999 1.5999999999999999 1.5999999999999999 1.5999999999999999 1.5999999999999999 1.5999999999999999 </DataArray>
</PointData>
<CellData/>
</Piece>
</UnstructuredGrid>
</VTKFile>
