<?xml version="1.0" ?>
<VTKFile byte_order="LittleEndian" type="UnstructuredGrid" version="0.1">
<UnstructuredGrid>
<Piece NumberOfCells="0" NumberOfPoints="32">
<Points>
<DataArray NumberOfComponents="3" format="ascii" type="Float32">1.2 1.2722769788880461 2 12.613078616206813 2.8859966630517864 2 27.940436410605649 3.2386187006237193 2 47.959963533339447 3.2552882150854643 2 51.364340952522198 1.2 2 74.514273621146117 1.2 2 83.3685383074246 1.2 2 92.165594457993961 1.2 2 4.9423929168087151 3.2997454920444937 2 11.020332571717166 1.2 2 29.078828420205003 1.2 2 47.01377543319397 5.3962461439359846 2 52.239407313719752 5.6303665832618428 2 77.654572665889603 3.2847672405598622 2 84.872713614982672 5.6427407820118338 2 96.59463411295134 1.2 2 3.6312645369097636 1.2 2 11.496684333035494 4.9668089063138279 2 26.709809839279863 1.2 2 49.108172222204438 1.2 2 50.326768185661052 3.3083355078732559 2 73.584018333508936 3.2315417060745606 2 82.322063866982958 3.2824242645241242 2 93.286724656303576 3.3091931227027733 2 2.5463694573495137 3.3022356600560712 2 8.6400360729250831 1.2 2 30.316720935650231 3.2449038669066028 2 44.61104487613423 5.4061415036238927 2 52.697921953585258 3.3161208888714415 2 76.782581541458313 1.2 2 84.672285557307276 3.3052006616291871 2 94.422727735579258 1.2 2 </DataArray>
</Points>
<Cells>
<DataArray Name="connectivity" format="ascii" type="Int32">0</DataArray>
<DataArray Name="offsets" format="ascii" type="Int32">0</DataArray>
<DataArray Name="types" format="ascii" type="UInt8">1</DataArray>
</Cells>
<PointData>
<DataArray Name="Points" NumberOfComponents="3" format="ascii" type="Float32">1.2 1.2722769788880461 2 12.613078616206813 2.8859966630517864 2 27.940436410605649 3.2386187006237193 2 47.959963533339447 3.2552882150854643 2 51.364340952522198 1.2 2 74.514273621146117 1.2 2 83.3685383074246 1.2 2 92.165594457993961 1.2 2 4.9423929168087151 3.2997454920444937 2 11.020332571717166 1.2 2 29.078828420205003 1.2 2 47.01377543319397 5.3962461439359846 2 52.239407313719752 5.6303665832618428 2 77.654572665889603 3.2847672405598622 2 84.872713614982672 5.6427407820118338 2 96.59463411295134 1.2 2 3.6312645369097636 1.2 2 11.496684333035494 4.9668089063138279 2 26.709809839279863 1.2 2 49.108172222204438 1.2 2 50.326768185661052 3.3083355078732559 2 73.584018333508936 3.2315417060745606 2 82.322063866982958 3.2824242645241242 2 93.286724656303576 3.3091931227027733 2 2.5463694573495137 3.3022356600560712 2 8.6400360729250831 1.2 2 30.316720935650231 3.2449038669066028 2 44.61104487613423 5.4061415036238927 2 52.697921953585258 3.3161208888714415 2 76.782581541458313 1.2 2 84.672285557307276 3.3052006616291871 2 94.422727735579258 1.2 2 </DataArray>
<DataArray Name="forces" NumberOfComponents="3" format="ascii" type="Float32">0.0 0.0 0.0 0.0015227530472861281 0.050061199579006878 0.0 -0.020450053264564588 0.07030915311994819 0.0 -0.021688921900474625 0.083679392592137067 0.0 -0.023886292989943731 -0.034114268562798672 0.0 -0.20727987461890698 -0.0728500644837516 0.0 -0.18231181610824204 -0.0056746984478081106 0.0 -0.11871515194343411 -0.046883474693258653 0.0 -0.017414400140802554 0.035249838636774257 0.0 -0.0064837966273840857 -0.11458810302452496 0.0 0.010066543444723727 -0.071786080282039311 0.0 -0.0089215650186453051 0.03135401371293093 0.0 -0.0073784010438025655 0.037209669480226429 0.0 -0.034191756117784085 0.0081597319146749329 0.0 0.0027279256924185378 0.033557634234248929 0.0 -0.036695986829038074 -0.079269261306433234 0.0 0.0069827868442198671 -0.02986807987356719 0.0 -0.0081986103414167649 0.044400847133310266 0.0 -0.049588931034677583 -0.030561761158972675 0.0 0.062435239900114486 -0.070669409192506527 0.0 0.012686740287620013 0.035632336384243984 0.0 0.029908784941678479 -0.037630243262631514 0.0 0.014403608730246334 -0.0018593711368808513 0.0 0.0068180525558763326 0.079259525749756962 0.0 -0.02069035807729697 0.029879654985235534 0.0 -0.0099252667601639338 -0.066762632728217156 0.0 -0.028790653529150022 0.038586891782984689 0.0 -0.025032319695918522 0.044408458786252235 0.0 -0.0093284935352742106 0.042949380293429325 0.0 0.18660336601259375 -0.074211855745563743 0.0 -0.015710677661290536 0.078091059158913789 0.0 0.089782415825790399 -0.032376051056498309 0.0 </DataArray>
<DataArray Name="radii" format="ascii" type="Float32">1.2 1.2 1.2 1.2 1.2 1.2 1.2 1.2 1.2 1.2 1.2 1.2 1.2 1.2 1.2 1.2 1.2 1.2 1.2 1.2 1.2 1.2 1.2 1.2 1.2 1.2 1.2 1.2 1.2 1.2 1.2 1.2 </DataArray>
</PointData>
<CellData/>
</Piece>
</UnstructuredGrid>
</VTKFile>
