<?xml version="1.0" ?>
<VTKFile byte_order="LittleEndian" type="UnstructuredGrid" version="0.1">
<UnstructuredGrid>
<Piece NumberOfCells="0" NumberOfPoints="45">
<Points>
<DataArray NumberOfComponents="3" format="ascii" type="Float32">0 0 0 6.0216433645460734 1.2 2 17.119434685144984 4.3158021380442593 2 32.520704492836352 4.1437397156996632 2 41.826113961459271 4.3255809981751572 2 42.443863924763349 2.0742612367538271 2 53.646815892934669 1.2 2 60.482104748834942 1.2 2 70.062079322496928 1.2 2 72.377803233605718 1.2 2 78.920805112376556 1.2 2 96.412800728436423 3.5111448479445992 2 8.545847027774883 5.2024929663073509 2 14.248730513064906 1.2 2 31.377116037390479 1.2 2 40.391070128094746 1.2 2 45.604805417142643 3.2503806721431583 2 58.168947588331044 1.2 2 60.542692725198492 4.9284192203629678 2 67.738221433171447 5.4898635972078367 2 72.508154006397973 5.3128629625679427 2 78.337377525453675 5.5529446074310638 2 98.8 1.2 2 7.335024110534607 3.1592593021177704 2 14.306420270907363 5.7685743468814366 2 29.15713180407786 5.2950673481324264 2 39.43560839681669 4.205373550581827 2 44.517883328467903 1.2 2 55.889452464118953 1.2 2 58.67284600260453 3.4722830696473963 2 67.905364683719839 1.2 2 71.181411502865686 3.3133370688498442 2 81.221322862125675 1.2 2 95.248283271953184 5.5647972225879911 2 9.8605491923130586 3.2306210573049863 2 14.898105678718096 3.4720012883433928 2 33.628403590838182 1.2 2 38.140144613886854 1.2 2 46.776634764288453 1.2 2 56.281400506059583 3.5178067112762275 2 62.989368424519938 5.0975345904279363 2 66.863104660418216 3.2938263233757583 2 71.86647871771001 7.5640929875655134 2 79.992866418172412 3.6304308955440683 2 98.8 3.5541417900619963 2 </DataArray>
</Points>
<Cells>
<DataArray Name="connectivity" format="ascii" type="Int32">0</DataArray>
<DataArray Name="offsets" format="ascii" type="Int32">0</DataArray>
<DataArray Name="types" format="ascii" type="UInt8">1</DataArray>
</Cells>
<PointData>
<DataArray Name="Points" NumberOfComponents="3" format="ascii" type="Float32">0 0 0 6.0216433645460734 1.2 2 17.119434685144984 4.3158021380442593 2 32.520704492836352 4.1437397156996632 2 41.826113961459271 4.3255809981751572 2 42.443863924763349 2.0742612367538271 2 53.646815892934669 1.2 2 60.482104748834942 1.2 2 70.062079322496928 1.2 2 72.377803233605718 1.2 2 78.920805112376556 1.2 2 96.412800728436423 3.5111448479445992 2 8.545847027774883 5.2024929663073509 2 14.248730513064906 1.2 2 31.377116037390479 1.2 2 40.391070128094746 1.2 2 45.604805417142643 3.2503806721431583 2 58.168947588331044 1.2 2 60.542692725198492 4.9284192203629678 2 67.738221433171447 5.4898635972078367 2 72.508154006397973 5.3128629625679427 2 78.337377525453675 5.5529446074310638 2 98.8 1.2 2 7.335024110534607 3.1592593021177704 2 14.306420270907363 5.7685743468814366 2 29.15713180407786 5.2950673481324264 2 39.43560839681669 4.205373550581827 2 44.517883328467903 1.2 2 55.889452464118953 1.2 2 58.67284600260453 3.4722830696473963 2 67.905364683719839 1.2 2 71.181411502865686 3.3133370688498442 2 81.221322862125675 1.2 2 95.248283271953184 5.5647972225879911 2 9.8605491923130586 3.2306210573049863 2 14.898105678718096 3.4720012883433928 2 33.628403590838182 1.2 2 38.140144613886854 1.2 2 46.776634764288453 1.2 2 56.281400506059583 3.5178067112762275 2 62.989368424519938 5.0975345904279363 2 66.863104660418216 3.2938263233757583 2 71.86647871771001 7.5640929875655134 2 79.992866418172412 3.6304308955440683 2 98.8 3.5541417900619963 2 </DataArray>
<DataArray Name="forces" NumberOfComponents="3" format="ascii" type="Float32">0 0 0 0.0039508673695722134 -0.067503964652335269 0.0 0.023334850146202256 0.0090112049009191276 0.0 -6.3063275382191364e-05 0.010639510062680562 0.0 -0.0082023699919590073 0.056420271894784615 0.0 -0.010655148316260604 0.071692796000817821 0.0 0.032265033579533593 -0.08012547153134493 0.0 0.023871707412876253 -0.077869098940768239 0.0 -0.16832651412376803 -0.052458889835074678 0.0 0.19528728652269997 -0.024761104528642875 0.0 -0.1637495003574827 0.0 0.0 0.00025666109205894905 0.044497700944881154 0.0 -0.004079373439813655 0.045578851549322681 0.0 -0.015820769666760506 -0.076982555171726322 0.0 -0.017164895859393681 -0.085267423493096559 0.0 0.04045366103176512 -0.057990425797712734 0.0 0.020578757847220502 0.012713515653970921 0.0 0.026696170108752752 -0.070856340935433665 0.0 -0.0074119733472102593 0.062725879094010409 0.0 0.0098147806699212144 0.025436828785491115 0.0 -0.048328912531144783 0.081777354341138267 0.0 0.017155204396239424 0.058465108489011292 0.0 0.21194780350277531 -0.045904713537979536 0.0 -0.01227696556487572 0.051921610543336043 0.0 -0.0066088860566310215 0.026060080454474797 0.0 -0.020627580273096136 0.03636757351584391 0.0 -0.0071816416533367587 -0.0002807046287810749 0.0 0.048918794464969967 -0.1220834779022559 0.0 0.010119979634750252 -0.049460748276159469 0.0 0.00048971365371357212 0.052238888266072814 0.0 0.10681861201361184 -0.08809234524679968 0.0 0.0029713756353057803 0.077334629478100908 0.0 0.17694004977175837 0.0 0.0 -0.019393391346754104 0.034553905393752117 0.0 -0.0080286937918319506 0.044047688001740359 0.0 0.011037286210925465 0.033952806669505009 0.0 -0.014561263670231028 0.0 0.0 -0.025413963867262968 -0.068787407287722896 0.0 -0.061826377417233416 -0.05079607718339349 0.0 0.00026969513996532267 0.049621078821284338 0.0 -0.0005927826421836084 0.075013670254184234 0.0 -0.034642506556794586 0.062799865558624948 0.0 -0.0082960004875619747 0.028588318290861506 0.0 -0.0015068557334450144 0.015345616513295851 0.0 0.012304219908090126 0.046122368505779499 0.0 </DataArray>
<DataArray Name="radii" format="ascii" type="Float32">0 1.2 1.2 1.2 1.2 1.2 1.2 1.2 1.2 1.2 1.2 1.2 1.2 1.2 1.2 1.2 1.2 1.2 1.2 1.2 1.2 1.2 1.2 1.2 1.2 1.2 1.2 1.2 1.2 1.2 1.2 1.2 1.2 1.2 1.2 1.2 1.2 1.2 1.2 1.2 1.2 1.2 1.2 1.2 1.2 </DataArray>
</PointData>
<CellData/>
</Piece>
</UnstructuredGrid>
</VTKFile>
