<?xml version="1.0" ?>
<VTKFile byte_order="LittleEndian" type="UnstructuredGrid" version="0.1">
<UnstructuredGrid>
<Piece NumberOfCells="0" NumberOfPoints="89">
<Points>
<DataArray NumberOfComponents="3" format="ascii" type="Float32">0 0 0 7.1406128748457771 1.5999999999999999 2 18.262839345032752 4.5478189877863473 2 33.327726561294313 5.6381835095750352 2 42.741131549338675 5.3272035553328587 2 42.850349185042859 1.5999999999999999 2 53.65384413670148 3.290112943672062 2 60.269805286451557 1.5999999999999999 2 71.341168691042185 1.5999999999999999 2 72.108823693245299 3.2959632393404092 2 78.726068699244038 1.5999999999999999 2 96.437872903922923 5.3102453798413514 2 8.1118192369762809 8.1158225527544765 2 14.159873284077301 1.5999999999999999 2 31.665012101593881 1.5999999999999999 2 40.939837600224614 1.5999999999999999 2 46.374814745789237 2.9211821723925935 2 58.385890618484154 1.5999999999999999 2 58.412254201255742 8.0815336607375414 2 69.425676031522784 6.177179176366284 2 72.835800385347696 4.9809596697078957 2 78.748082260320459 8.5977660989332207 2 98.4 1.5999999999999999 2 6.6905027833269299 4.2470641400230003 2 14.314197728065118 6.0914566367698173 2 29.536055772328154 7.2046504166859284 2 39.304116333080216 7.0451679932917459 2 44.585562682883904 3.2310991499522852 2 56.84838744972118 1.5999999999999999 2 58.732389964037878 5.2271029798773414 2 68.611828020920598 1.5999999999999999 2 70.439988872246346 4.0516098403852148 2 80.887911206530831 1.5999999999999999 2 95.481548902158849 7.810270112015175 2 9.8169904410590281 4.0786554932642956 2 15.281279705733406 4.1531083119577241 2 33.010085827933231 3.5938820989059836 2 39.012165087872944 1.5999999999999999 2 46.884003150046311 1.5999999999999999 2 55.421011391245081 4.1001870928345134 2 62.930108661236225 8.8426498790732975 2 66.916484639501846 5.3314395628435616 2 71.739983759352484 6.7178768062455863 2 80.551257231985872 4.5627151746352519 2 98.4 4.650813126687714 2 5.4858240617597831 1.5999999999999999 2 16.842422163014465 6.3472283176398898 2 31.199142404930864 5.6673649366321088 2 40.749336599867689 5.0622099885515039 2 42.752057092897758 3.2140794383435489 2 54.029044337942281 1.5999999999999999 2 61.297923388488528 2.5730548998360172 2 69.960819586620389 1.5999999999999999 2 72.8843131158999 1.5999999999999999 2 79.81406918710357 2.6091597185184181 2 94.066301728706776 5.5016600549207499 2 5.9467685851237375 6.3867270366074118 2 13.629804498779951 3.357033906520448 2 31.200288953304529 3.373536634751777 2 40.819549779854228 3.1256419630298273 2 44.939558063405727 5.1438370447046191 2 57.175935218532487 3.6778624522618868 2 60.836084631992506 6.970297271633898 2 67.537007420188914 8.0095821659190065 2 74.03540490862747 7.8323602978153382 2 78.790444243483051 5.7653234907819337 2 98.4 2.8756192530861537 2 5.5437780042423137 3.3078189826591422 2 15.2428676999203 8.6052963993846667 2 32.080603761786058 8.2809921148820074 2 38.687950358481736 4.6242749797060476 2 44.767865011510231 1.5999999999999999 2 55.496937705995535 1.5999999999999999 2 59.106321236155743 2.8239908376188061 2 67.606698490798593 2.5093897344674336 2 68.620918803106463 4.0237049878498929 2 82.122363663104835 3.1550366789459612 2 92.460327359207497 7.7935225405228508 2 8.2436506375262955 5.2981534309038123 2 16.737501124365295 3.4285807446281273 2 33.259925395725055 1.5999999999999999 2 38.605529576045591 2.7507262139802835 2 48.236103045602199 3.1651359548976132 2 56.632433378169019 6.0150589802996715 2 63.020612350860823 6.0095592784426328 2 65.15645474473169 7.0829976795134462 2 70.240248852386316 8.9538099785706962 2 81.088349752327076 7.2200265830393775 2 98.4 7.2470458372574997 2 </DataArray>
</Points>
<Cells>
<DataArray Name="connectivity" format="ascii" type="Int32">0</DataArray>
<DataArray Name="offsets" format="ascii" type="Int32">0</DataArray>
<DataArray Name="types" format="ascii" type="UInt8">1</DataArray>
</Cells>
<PointData>
<DataArray Name="Points" NumberOfComponents="3" format="ascii" type="Float32">0 0 0 7.1406128748457771 1.5999999999999999 2 18.262839345032752 4.5478189877863473 2 33.327726561294313 5.6381835095750352 2 42.741131549338675 5.3272035553328587 2 42.850349185042859 1.5999999999999999 2 53.65384413670148 3.290112943672062 2 60.269805286451557 1.5999999999999999 2 71.341168691042185 1.5999999999999999 2 72.108823693245299 3.2959632393404092 2 78.726068699244038 1.5999999999999999 2 96.437872903922923 5.3102453798413514 2 8.1118192369762809 8.1158225527544765 2 14.159873284077301 1.5999999999999999 2 31.665012101593881 1.5999999999999999 2 40.939837600224614 1.5999999999999999 2 46.374814745789237 2.9211821723925935 2 58.385890618484154 1.5999999999999999 2 58.412254201255742 8.0815336607375414 2 69.425676031522784 6.177179176366284 2 72.835800385347696 4.9809596697078957 2 78.748082260320459 8.5977660989332207 2 98.4 1.5999999999999999 2 6.6905027833269299 4.2470641400230003 2 14.314197728065118 6.0914566367698173 2 29.536055772328154 7.2046504166859284 2 39.304116333080216 7.0451679932917459 2 44.585562682883904 3.2310991499522852 2 56.84838744972118 1.5999999999999999 2 58.732389964037878 5.2271029798773414 2 68.611828020920598 1.5999999999999999 2 70.439988872246346 4.0516098403852148 2 80.887911206530831 1.5999999999999999 2 95.481548902158849 7.810270112015175 2 9.8169904410590281 4.0786554932642956 2 15.281279705733406 4.1531083119577241 2 33.010085827933231 3.5938820989059836 2 39.012165087872944 1.5999999999999999 2 46.884003150046311 1.5999999999999999 2 55.421011391245081 4.1001870928345134 2 62.930108661236225 8.8426498790732975 2 66.916484639501846 5.3314395628435616 2 71.739983759352484 6.7178768062455863 2 80.551257231985872 4.5627151746352519 2 98.4 4.650813126687714 2 5.4858240617597831 1.5999999999999999 2 16.842422163014465 6.3472283176398898 2 31.199142404930864 5.6673649366321088 2 40.749336599867689 5.0622099885515039 2 42.752057092897758 3.2140794383435489 2 54.029044337942281 1.5999999999999999 2 61.297923388488528 2.5730548998360172 2 69.960819586620389 1.5999999999999999 2 72.8843131158999 1.5999999999999999 2 79.81406918710357 2.6091597185184181 2 94.066301728706776 5.5016600549207499 2 5.9467685851237375 6.3867270366074118 2 13.629804498779951 3.357033906520448 2 31.200288953304529 3.373536634751777 2 40.819549779854228 3.1256419630298273 2 44.939558063405727 5.1438370447046191 2 57.175935218532487 3.6778624522618868 2 60.836084631992506 6.970297271633898 2 67.537007420188914 8.0095821659190065 2 74.03540490862747 7.8323602978153382 2 78.790444243483051 5.7653234907819337 2 98.4 2.8756192530861537 2 5.5437780042423137 3.3078189826591422 2 15.2428676999203 8.6052963993846667 2 32.080603761786058 8.2809921148820074 2 38.687950358481736 4.6242749797060476 2 44.767865011510231 1.5999999999999999 2 55.496937705995535 1.5999999999999999 2 59.106321236155743 2.8239908376188061 2 67.606698490798593 2.5093897344674336 2 68.620918803106463 4.0237049878498929 2 82.122363663104835 3.1550366789459612 2 92.460327359207497 7.7935225405228508 2 8.2436506375262955 5.2981534309038123 2 16.737501124365295 3.4285807446281273 2 33.259925395725055 1.5999999999999999 2 38.605529576045591 2.7507262139802835 2 48.236103045602199 3.1651359548976132 2 56.632433378169019 6.0150589802996715 2 63.020612350860823 6.0095592784426328 2 65.15645474473169 7.0829976795134462 2 70.240248852386316 8.9538099785706962 2 81.088349752327076 7.2200265830393775 2 98.4 7.2470458372574997 2 </DataArray>
<DataArray Name="forces" NumberOfComponents="3" format="ascii" type="Float32">0 0 0 -0.094971990867652845 -2.2240327360738572 0.0 0.027395340014253033 0.86870220357303252 0.0 -0.016994172276959985 0.90666000681738668 0.0 -0.067192637524047111 0.95792167539775708 0.0 0.03424248969650856 -2.5464369674685048 0.0 0.031853646838058802 1.0326629424028286 0.0 -0.13000639879327824 -2.5484985777100997 0.0 0.10970332406776184 -1.7850588054179832 0.0 0.060623459817959247 1.1553298169309496 0.0 0.061560549321561631 -2.1763436748040581 0.0 -0.008793715102929589 0.90334783890619141 0.0 -0.012501195436345747 0.89820825812418148 0.0 -0.03916555377788189 -1.7108852604318774 0.0 0.039813498831487326 -2.0461263963650826 0.0 0.0705218996598167 -2.4511965225148922 0.0 -0.029624645717730269 0.75965079661435264 0.0 0.03410631434656719 -2.2658099896434187 0.0 -0.041501875468631155 0.91856413846279761 0.0 -0.0048596462536356771 0.90616480924127396 0.0 0.045695417272079049 0.81666342497522604 0.0 -0.012702537139641035 0.90760591952628944 0.0 1.5939044872481738 -2.2111859819967066 0.0 0.10072071330527099 0.84862484847597508 0.0 -0.027019421133859189 0.90295547350811822 0.0 -0.014198107188315712 0.95097321231518739 0.0 -0.037859144143480572 0.83498820485188663 0.0 0.034576872588212737 0.94932100055678903 0.0 0.001013096710418715 -1.6489199598070994 0.0 -0.023796357435085014 0.93416806021595078 0.0 0.045724370054146403 -2.1202659298446358 0.0 -0.18706320452808889 0.73809303477592314 0.0 0.16994148071890136 -2.3568427387161379 0.0 0.023656480772551836 0.9546991614051995 0.0 -0.14758675344756189 0.82696702794429355 0.0 -0.0017644460841002435 0.88492320870467156 0.0 -0.12077596216704767 0.93724215631478747 0.0 0.10413244160420032 -2.8050220796493122 0.0 0.086164534785202251 -2.7461609787279917 0.0 0.053099231277521253 0.64421239590554324 0.0 -0.0080700435036766272 0.85132790068771147 0.0 0.058708183207896725 0.90046731525226242 0.0 -0.0093032126229776746 0.66320771430066572 0.0 -0.023232933122015478 0.81327302310874239 0.0 1.5421425555586985 0.85743405550202589 0.0 -0.046659869029235926 -2.3495730597393534 0.0 0.01011734426570219 0.83922881025195983 0.0 -0.03726767777289608 0.92353275874241503 0.0 -0.086135954267837114 0.85542543363436807 0.0 0.040036189953228885 0.93069509106253734 0.0 -0.18789809058585583 -1.8759878409487691 0.0 -0.012434985142152688 0.79155526336838877 0.0 0.097736740824227925 -1.5970631724951283 0.0 -0.018478156998713802 -1.7905363874996909 0.0 0.022761153663408806 0.74068151926640491 0.0 -0.02101156082262956 0.97281895052929812 0.0 -0.032773468521472449 0.91177432039288386 0.0 -0.0005806733665366659 0.86121048587252202 0.0 -0.1249507785555668 0.83521438263703973 0.0 0.0063273710530492577 0.88939966042990193 0.0 0.0061174612372369985 0.94143229589225352 0.0 -0.072868666877590943 0.8063793066020013 0.0 -0.10134350846623918 0.91581756915261026 0.0 -0.021972301082036017 0.95799143319850599 0.0 -0.034651699255504709 0.94440188002329029 0.0 0.017677572392848562 0.87787205978301408 0.0 1.6243030622401951 0.85757112541116209 0.0 0.021169411599569088 1.0102833416423957 0.0 0.10691602663349281 0.87925329665875007 0.0 0.0037939796784241253 0.93185713948495541 0.0 -0.10078107218315281 0.81818517727301465 0.0 -0.0096081331209981746 -2.6506560568208481 0.0 -0.101124616586106 -1.5683877658451202 0.0 -0.049961913188205087 1.1183594519990474 0.0 0.0048655948433314888 0.79850028526178773 0.0 -0.024177585105698118 0.83828971611919245 0.0 0.028186143097670202 0.95145677160617947 0.0 0.032835110478129148 0.99582842829323803 0.0 0.018142779382552821 0.91094193598435447 0.0 -0.0076803076991877051 0.84153253956997676 0.0 0.0055414634018405851 -2.2578474485886497 0.0 -0.0679182529125225 0.77259621532918166 0.0 0.0082386715967734947 0.95410933999551095 0.0 -0.055598238912906051 0.80236059035918084 0.0 -0.11027833292916933 0.89008661416728341 0.0 -0.028658519847744146 0.72501337044824177 0.0 0.12039516028886199 0.82963266774245648 0.0 0.011131024955148283 0.86956607299585842 0.0 0.53758207844153294 0.87278182298009577 0.0 </DataArray>
<DataArray Name="radii" format="ascii" type="Float32">0 1.5999999999999999 1.5999999999999999 1.5999999999999999 1.5999999999999999 1.5999999999999999 1.5999999999999999 1.5999999999999999 1.5999999999999999 1.5999999999999999 1.5999999999999999 1.5999999999999999 1.5999999999999999 1.5999999999999999 1.5999999999999999 1.5999999999999999 1.5999999999999999 1.5999999999999999 1.5999999999999999 1.5999999999999999 1.5999999999999999 1.5999999999999999 1.5999999999999999 1.5999999999999999 1.5999999999999999 1.5999999999999999 1.5999999999999999 1.5999999999999999 1.5999999999999999 1.5999999999999999 1.5999999999999999 1.5999999999999999 1.5999999999999999 1.5999999999999999 1.5999999999999999 1.5999999999999999 1.5999999999999999 1.5999999999999999 1.5999999999999999 1.5999999999999999 1.5999999999999999 1.5999999999999999 1.5999999999999999 1.5999999999999999 1.5999999999999999 1.5999999999999999 1.5999999999999999 1.5999999999999999 1.5999999999999999 1.5999999999999999 1.5999999999999999 1.5999999999999999 1.5999999999999999 1.5999999999999999 1.5999999999999999 1.5999999999999999 1.5999999999999999 1.5999999999999999 1.5999999999999999 1.5999999999999999 1.5999999999999999 1.5999999999999999 1.5999999999999999 1.5999999999999999 1.5999999999999999 1.5999999999999999 1.5999999999999999 1.5999999999999999 1.5999999999999999 1.5999999999999999 1.5999999999999999 1.5999999999999999 1.5999999999999999 1.5999999999999999 1.5999999999999999 1.5999999999999999 1.5999999999999999 1.5999999999999999 1.5999999999999999 1.5999999999999999 1.5999999999999999 1.5999999999999999 1.5999999999999999 1.5999999999999999 1.5999999999999999 1.5999999999999999 1.5999999999999999 1.5999999999999999 1.5999999999999999 </DataArray>
</PointData>
<CellData/>
</Piece>
</UnstructuredGrid>
</VTKFile>
