<?xml version="1.0" ?>
<VTKFile byte_order="LittleEndian" type="UnstructuredGrid" version="0.1">
<UnstructuredGrid>
<Piece NumberOfCells="0" NumberOfPoints="16">
<Points>
<DataArray NumberOfComponents="3" format="ascii" type="Float32">3.297266546290361 1.2 2 12.339079273987624 2.0964745230866604 2 27.128374551761699 1.3113944296552646 2 48.459220216177279 1.2 2 51.747337097078066 1.2 2 75.061009520218576 2.5320700148006363 2 83.484906866330974 1.2 2 91.139034756541946 1.2 2 5.3902394367547029 2.3800108519465391 2 10.011806238037959 1.2 2 29.662673455084882 1.2 2 47.413131857629395 3.3584739428081449 2 52.374198735053341 3.5128834785514154 2 76.958527021718794 1.2 2 84.581327163786483 3.3331562049747445 2 93.50555180597749 1.680828243834769 2 </DataArray>
</Points>
<Cells>
<DataArray Name="connectivity" format="ascii" type="Int32">0</DataArray>
<DataArray Name="offsets" format="ascii" type="Int32">0</DataArray>
<DataArray Name="types" format="ascii" type="UInt8">1</DataArray>
</Cells>
<PointData>
<DataArray Name="Points" NumberOfComponents="3" format="ascii" type="Float32">3.297266546290361 1.2 2 12.339079273987624 2.0964745230866604 2 27.128374551761699 1.3113944296552646 2 48.459220216177279 1.2 2 51.747337097078066 1.2 2 75.061009520218576 2.5320700148006363 2 83.484906866330974 1.2 2 91.139034756541946 1.2 2 5.3902394367547029 2.3800108519465391 2 10.011806238037959 1.2 2 29.662673455084882 1.2 2 47.413131857629395 3.3584739428081449 2 52.374198735053341 3.5128834785514154 2 76.958527021718794 1.2 2 84.581327163786483 3.3331562049747445 2 93.50555180597749 1.680828243834769 2 </DataArray>
<DataArray Name="forces" NumberOfComponents="3" format="ascii" type="Float32">-0.0057066405263924641 -0.0032921754508527879 0.0 0.043855754998700841 0.01785636982632885 0.0 -0.055763786733442865 0.0030452195011100402 0.0 0.0073654863941058487 -0.015540639295061838 0.0 -0.0052010991959708375 -0.019653378090290122 0.0 0.024445506813711076 -0.0046931832376496969 0.0 -0.0073355696237094375 -0.014586540483246395 0.0 -0.010887573085147768 -0.0023599336335481101 0.0 0.0057066405263924641 0.0032921754508527879 0.0 -0.041570321644624188 -0.021367071566519697 0.0 0.055763786733442865 -0.0030452195011100402 0.0 -0.0073654863941058487 0.015540639295061838 0.0 0.0052010991959708375 0.019653378090290122 0.0 -0.016111480479794563 -0.020806556494506072 0.0 0.0073355696237094375 0.014586540483246395 0.0 0.007109730423114597 -0.00015648546493475394 0.0 </DataArray>
<DataArray Name="radii" format="ascii" type="Float32">1.2 1.2 1.2 1.2 1.2 1.2 1.2 1.2 1.2 1.2 1.2 1.2 1.2 1.2 1.2 1.2 </DataArray>
</PointData>
<CellData/>
</Piece>
</UnstructuredGrid>
</VTKFile>
