<?xml version="1.0" ?>
<VTKFile byte_order="LittleEndian" type="UnstructuredGrid" version="0.1">
<UnstructuredGrid>
<Piece NumberOfCells="0" NumberOfPoints="10">
<Points>
<DataArray NumberOfComponents="3" format="ascii" type="Float32">20.604776723811646 1.4 2 25.213307677419856 3.4879331213353626 2 35.99311233978878 1.4 2 65.526812230469304 2.0226276153601592 2 88.725539646687892 1.4 2 17.728272659113845 1.4 2 23.295051421119542 1.4 2 37.012739596137507 3.9942222789591435 2 62.792806428617169 1.4 2 86.010179463583 1.4 2 </DataArray>
</Points>
<Cells>
<DataArray Name="connectivity" format="ascii" type="Int32">0</DataArray>
<DataArray Name="offsets" format="ascii" type="Int32">0</DataArray>
<DataArray Name="types" format="ascii" type="UInt8">1</DataArray>
</Cells>
<PointData>
<DataArray Name="Points" NumberOfComponents="3" format="ascii" type="Float32">20.604776723811646 1.4 2 25.213307677419856 3.4879331213353626 2 35.99311233978878 1.4 2 65.526812230469304 2.0226276153601592 2 88.725539646687892 1.4 2 17.728272659113845 1.4 2 23.295051421119542 1.4 2 37.012739596137507 3.9942222789591435 2 62.792806428617169 1.4 2 86.010179463583 1.4 2 </DataArray>
<DataArray Name="forces" NumberOfComponents="3" format="ascii" type="Float32">0.037135935188835845 0.0 0.0 0.021737758653141034 0.068929727670388755 0.0 -0.0073656313525445362 -0.040380010532692828 0.0 0.016542223937660878 0.0018503658591521701 0.0 0.0026877693564983929 0.0 0.0 -0.050202676367503862 0.0 0.0 -0.029490548032489891 -0.046676500883847241 0.0 0.0088155324144077295 0.040177772688808455 0.0 -0.005608458912984178 -0.0047090586951981026 0.0 0.015058603512320252 -0.039325231662315524 0.0 </DataArray>
<DataArray Name="radii" format="ascii" type="Float32">1.4 1.4 1.4 1.4 1.4 1.4 1.4 1.4 1.4 1.4 </DataArray>
</PointData>
<CellData/>
</Piece>
</UnstructuredGrid>
</VTKFile>
