<?xml version="1.0" ?>
<VTKFile byte_order="LittleEndian" type="UnstructuredGrid" version="0.1">
<UnstructuredGrid>
<Piece NumberOfCells="0" NumberOfPoints="20">
<Points>
<DataArray NumberOfComponents="3" format="ascii" type="Float32">21.165393133985493 1.2 2 25.078191362019634 3.4363649351635144 2 37.078135910230834 3.240767678942805 2 65.586070332329214 1.2 2 88.892491411474722 3.3173703274780704 2 18.810878759594331 1.2 2 22.743037023879232 2.9282183418040804 2 37.342729240309339 5.5908808985049196 2 61.896382595502928 3.0219019455813463 2 87.768685631484459 1.2 2 20.392186328028025 3.4330417712676056 2 26.660401571437184 5.2086484011677214 2 35.88811052169973 1.2 2 64.492322117214158 3.250413197908725 2 90.039209400447675 1.2 2 16.54367956181477 1.7610606203952537 2 24.354868054227104 1.2 2 34.886531129008993 4.1329788215390053 2 63.296911501492218 1.2 2 85.669654860460312 1.2 2 </DataArray>
</Points>
<Cells>
<DataArray Name="connectivity" format="ascii" type="Int32">0</DataArray>
<DataArray Name="offsets" format="ascii" type="Int32">0</DataArray>
<DataArray Name="types" format="ascii" type="UInt8">1</DataArray>
</Cells>
<PointData>
<DataArray Name="Points" NumberOfComponents="3" format="ascii" type="Float32">21.165393133985493 1.2 2 25.078191362019634 3.4363649351635144 2 37.078135910230834 3.240767678942805 2 65.586070332329214 1.2 2 88.892491411474722 3.3173703274780704 2 18.810878759594331 1.2 2 22.743037023879232 2.9282183418040804 2 37.342729240309339 5.5908808985049196 2 61.896382595502928 3.0219019455813463 2 87.768685631484459 1.2 2 20.392186328028025 3.4330417712676056 2 26.660401571437184 5.2086484011677214 2 35.88811052169973 1.2 2 64.492322117214158 3.250413197908725 2 90.039209400447675 1.2 2 16.54367956181477 1.7610606203952537 2 24.354868054227104 1.2 2 34.886531129008993 4.1329788215390053 2 63.296911501492218 1.2 2 85.669654860460312 1.2 2 </DataArray>
<DataArray Name="forces" NumberOfComponents="3" format="ascii" type="Float32">0.022090525596256197 -0.079494840623462959 0.0 0.017668633649980524 0.035407828151944806 0.0 0.011044466384583493 0.01306188765123599 0.0 -0.10170165231201717 -0.036970481347723308 0.0 0.0066217256024025707 0.088750808336932191 0.0 0.010312955131755487 -0.015783725284129236 0.0 -0.0052450261483631064 0.07176167711694087 0.0 0.0061011827617810334 0.053283332767641571 0.0 -0.0050675293227955137 0.084107928494810233 0.0 -0.16441210963759878 -0.051661961858864826 0.0 -0.011960174122952562 0.035353748216068445 0.0 -0.0068979833152297849 0.047153420105405727 0.0 0.036749332527475226 -0.015593931798460354 0.0 -0.0076111110922721485 0.015332472860020414 0.0 0.15111627426837629 -0.037088846478067365 0.0 0.0013431701963954878 0.0013252782808751799 0.0 -0.013189885340877699 -0.078318901833906357 0.0 -0.018876530856667479 0.017885323986966347 0.0 0.01239401076722214 -0.10402759738761413 0.0 0.17754175507589448 -0.11187322497989209 0.0 </DataArray>
<DataArray Name="radii" format="ascii" type="Float32">1.2 1.2 1.2 1.2 1.2 1.2 1.2 1.2 1.2 1.2 1.2 1.2 1.2 1.2 1.2 1.2 1.2 1.2 1.2 1.2 </DataArray>
</PointData>
<CellData/>
</Piece>
</UnstructuredGrid>
</VTKFile>
