<?xml version="1.0" ?>
<VTKFile byte_order="LittleEndian" type="UnstructuredGrid" version="0.1">
<UnstructuredGrid>
<Piece NumberOfCells="0" NumberOfPoints="89">
<Points>
<DataArray NumberOfComponents="3" format="ascii" type="Float32">0 0 0 7.1948255688549034 1.4 2 18.315576103479088 4.558902863378437 2 33.39410477899817 5.5506212500825853 2 42.88702557381167 5.2107773129568491 2 42.762296053117126 1.4 2 53.708515780491616 3.1077101482718623 2 60.442594978629387 1.4 2 70.839303568682595 1.4 2 72.124995544945264 2.9736704149113433 2 78.561020904929833 1.4 2 96.644248746253339 5.4178372515824771 2 8.1180600082542149 7.9064854942267901 2 14.322364775915515 1.4 2 31.552803816412521 1.4 2 40.841742760864385 1.4 2 46.307631808676277 3.114925506240851 2 58.378990537330161 1.4 2 58.717116535609328 7.7186070754494143 2 69.371533006189381 6.3023294598701289 2 72.884823196404682 5.111773214371798 2 78.706123788500989 8.3317600499187439 2 98.6 1.4 2 6.5273320228609775 4.0379371016817425 2 14.423188681904751 6.210504120783396 2 29.544682801934005 7.0001514524451407 2 39.382034577302754 7.079295457868561 2 44.438019363899741 3.1359526137125755 2 56.710741710810048 1.4 2 58.643391737696426 5.2187309344933279 2 68.683757501185326 1.4 2 70.840476787731276 4.6098619975713566 2 80.621253641024964 1.4 2 95.484492434667331 7.5336158977380894 2 10.06576792868357 4.0148292397002647 2 15.182732087763302 4.0629474885628065 2 33.298765731976069 3.3641058481347517 2 38.869873918102257 1.4 2 46.719613050631843 1.4 2 55.251821585563981 4.8065273839178584 2 63.069577533697867 8.733862498184795 2 66.831869066999516 5.385160861442122 2 71.690143882537285 7.030950457641727 2 80.477639794156289 4.7600191408762349 2 98.6 4.783498652321299 2 5.3723298942529896 1.4 2 16.784353303572161 6.1848508960760258 2 31.366561862708949 5.6775393993300698 2 40.933396316605737 5.1905122935883998 2 42.609925937717328 3.1473111616585996 2 54.552691889197298 1.4 2 61.230591188559828 2.8412755605419551 2 69.897421041565721 2.7561381028836278 2 72.836504330698716 1.4 2 79.887741129495168 2.9376485588887684 2 94.302862838185831 5.2718626199000882 2 6.0098506164217413 6.399283485698235 2 13.639050343442149 3.2690603606752191 2 31.564491864984358 3.4365178817347686 2 40.746227554802886 3.1464237094818368 2 44.960148957116154 5.1452921767901678 2 57.345700791606014 3.6896021596870665 2 61.046986243121253 7.0270967445831358 2 67.5778278389961 7.779333920973075 2 74.04044925879731 7.5125732933529541 2 78.699863100981531 5.8454536418643377 2 98.6 3.0229194335823597 2 5.3711944807905025 3.0116698731297045 2 14.759106566474347 8.705186770383385 2 32.009292165128436 8.1126041873167001 2 38.882028117094443 4.7266513430432893 2 44.723192324168579 1.4 2 55.780877686069637 2.8038997530362595 2 59.120650686236381 2.9075740919903805 2 67.572700781252877 2.8817454339293285 2 68.562304618500391 4.3289062017391444 2 82.051851522876035 3.103151753493286 2 92.770283754622724 7.4662915934387017 2 8.2035856535186689 5.3699113902976192 2 16.856763662221113 3.377043067157063 2 33.230705257856187 1.4 2 38.736067510395792 2.8409026682643583 2 48.191607231590723 3.1676776081969087 2 56.804256761118495 6.2111396439259741 2 63.198852150359954 6.2336405638212815 2 65.260755385012828 7.2495782874653241 2 69.976162498953272 8.8348752886754855 2 80.993882689047766 7.1628850469360072 2 98.6 7.2088003490226615 2 </DataArray>
</Points>
<Cells>
<DataArray Name="connectivity" format="ascii" type="Int32">0</DataArray>
<DataArray Name="offsets" format="ascii" type="Int32">0</DataArray>
<DataArray Name="types" format="ascii" type="UInt8">1</DataArray>
</Cells>
<PointData>
<DataArray Name="Points" NumberOfComponents="3" format="ascii" type="Float32">0 0 0 7.1948255688549034 1.4 2 18.315576103479088 4.558902863378437 2 33.39410477899817 5.5506212500825853 2 42.88702557381167 5.2107773129568491 2 42.762296053117126 1.4 2 53.708515780491616 3.1077101482718623 2 60.442594978629387 1.4 2 70.839303568682595 1.4 2 72.124995544945264 2.9736704149113433 2 78.561020904929833 1.4 2 96.644248746253339 5.4178372515824771 2 8.1180600082542149 7.9064854942267901 2 14.322364775915515 1.4 2 31.552803816412521 1.4 2 40.841742760864385 1.4 2 46.307631808676277 3.114925506240851 2 58.378990537330161 1.4 2 58.717116535609328 7.7186070754494143 2 69.371533006189381 6.3023294598701289 2 72.884823196404682 5.111773214371798 2 78.706123788500989 8.3317600499187439 2 98.6 1.4 2 6.5273320228609775 4.0379371016817425 2 14.423188681904751 6.210504120783396 2 29.544682801934005 7.0001514524451407 2 39.382034577302754 7.079295457868561 2 44.438019363899741 3.1359526137125755 2 56.710741710810048 1.4 2 58.643391737696426 5.2187309344933279 2 68.683757501185326 1.4 2 70.840476787731276 4.6098619975713566 2 80.621253641024964 1.4 2 95.484492434667331 7.5336158977380894 2 10.06576792868357 4.0148292397002647 2 15.182732087763302 4.0629474885628065 2 33.298765731976069 3.3641058481347517 2 38.869873918102257 1.4 2 46.719613050631843 1.4 2 55.251821585563981 4.8065273839178584 2 63.069577533697867 8.733862498184795 2 66.831869066999516 5.385160861442122 2 71.690143882537285 7.030950457641727 2 80.477639794156289 4.7600191408762349 2 98.6 4.783498652321299 2 5.3723298942529896 1.4 2 16.784353303572161 6.1848508960760258 2 31.366561862708949 5.6775393993300698 2 40.933396316605737 5.1905122935883998 2 42.609925937717328 3.1473111616585996 2 54.552691889197298 1.4 2 61.230591188559828 2.8412755605419551 2 69.897421041565721 2.7561381028836278 2 72.836504330698716 1.4 2 79.887741129495168 2.9376485588887684 2 94.302862838185831 5.2718626199000882 2 6.0098506164217413 6.399283485698235 2 13.639050343442149 3.2690603606752191 2 31.564491864984358 3.4365178817347686 2 40.746227554802886 3.1464237094818368 2 44.960148957116154 5.1452921767901678 2 57.345700791606014 3.6896021596870665 2 61.046986243121253 7.0270967445831358 2 67.5778278389961 7.779333920973075 2 74.04044925879731 7.5125732933529541 2 78.699863100981531 5.8454536418643377 2 98.6 3.0229194335823597 2 5.3711944807905025 3.0116698731297045 2 14.759106566474347 8.705186770383385 2 32.009292165128436 8.1126041873167001 2 38.882028117094443 4.7266513430432893 2 44.723192324168579 1.4 2 55.780877686069637 2.8038997530362595 2 59.120650686236381 2.9075740919903805 2 67.572700781252877 2.8817454339293285 2 68.562304618500391 4.3289062017391444 2 82.051851522876035 3.103151753493286 2 92.770283754622724 7.4662915934387017 2 8.2035856535186689 5.3699113902976192 2 16.856763662221113 3.377043067157063 2 33.230705257856187 1.4 2 38.736067510395792 2.8409026682643583 2 48.191607231590723 3.1676776081969087 2 56.804256761118495 6.2111396439259741 2 63.198852150359954 6.2336405638212815 2 65.260755385012828 7.2495782874653241 2 69.976162498953272 8.8348752886754855 2 80.993882689047766 7.1628850469360072 2 98.6 7.2088003490226615 2 </DataArray>
<DataArray Name="forces" NumberOfComponents="3" format="ascii" type="Float32">0 0 0 -0.037133207477360153 -0.99461603945868204 0.0 -0.062164339363159016 0.5956184894753912 0.0 -0.1116775081728142 0.51279169724207441 0.0 -0.022588235247737003 0.496006979792327 0.0 -0.039972202174919036 -1.421785881202779 0.0 0.028716376713865732 0.49011686702337454 0.0 -0.016222125626597861 -1.6190747610802476 0.0 0.010893249599448485 -1.5431146586997908 0.0 0.088934491378117486 0.46613477933664371 0.0 -0.038110888560419331 -1.2968645308437541 0.0 -0.021372121355892712 0.53006219877294092 0.0 0.016364177180727746 0.48775085254877049 0.0 -0.075127318016001698 -0.76675895984963083 0.0 0.063814230226569846 -0.89075725914600756 0.0 -0.013570846899267991 -1.4196526441479043 0.0 0.087669594057962041 0.44577961147418954 0.0 0.018217974762350431 -1.2760097383965956 0.0 -0.056655330028347328 0.63092220770814411 0.0 -0.051348186394734957 0.46837858547223665 0.0 0.010153649586899356 0.51478557524262891 0.0 0.046435882408763035 0.55284642491087532 0.0 1.1129849832231313 -1.1784587826799688 0.0 -0.037359484817306998 0.43823361327305016 0.0 -0.054115229271261223 0.33417246930877409 0.0 0.035838859855995747 0.570598893633396 0.0 -0.075195625326948123 0.50350512607279951 0.0 0.088029301453840469 0.44508053706648254 0.0 0.013379074739913732 -1.3452560464542647 0.0 0.083325173292112531 0.58736155821358804 0.0 -0.017415059771726527 -1.4968325259046908 0.0 -0.0023583824472394044 0.46231562384074076 0.0 -0.023798982876437558 -1.4331631014689585 0.0 0.015509905809602237 0.56600045531360477 0.0 -0.037323411745086604 0.40190145279038736 0.0 0.10242233888723518 0.34962403761817096 0.0 -0.018175239768846052 0.48857550850632236 0.0 -0.042370178248856527 -1.5291686655006398 0.0 -0.093160549050495312 -1.4024675193166007 0.0 0.049128976314779638 0.46158738184497017 0.0 -0.022981904250129914 0.48369397347861098 0.0 0.054307947234789627 0.53107260740196827 0.0 -0.034334669704743109 0.48625386993510655 0.0 0.02880469963897403 0.46219484874396238 0.0 0.72789442909703284 0.44682757417410734 0.0 -0.042840199200889217 -1.265249722874803 0.0 -0.066453734097720207 0.43707141267292993 0.0 -0.16671106888097151 0.31633165935966828 0.0 -0.047089807001696266 0.47392851706899669 0.0 0.059846943988221157 0.47666953488067154 0.0 -0.066917499457877727 -1.5111398450702915 0.0 -0.052719630892006986 0.3900731185343872 0.0 0.060213784696968808 0.39165368574778303 0.0 -0.013521514796827283 -1.4559047135031769 0.0 0.10922835335127135 0.38713333009941892 0.0 0.0096545469373787302 0.51502853698335882 0.0 0.0089168738266093284 0.46049500075646355 0.0 0.016357186605605714 0.47104611127734536 0.0 -0.0063073886870081003 0.35850737467174548 0.0 0.042982177890871442 0.44012562956179513 0.0 -0.014669769161128679 0.49086240876488602 0.0 -0.012580114073554804 0.49173041629248199 0.0 -0.082745354868164755 0.5091375639146537 0.0 -0.032239680340322013 0.60915289751653368 0.0 0.0005402994058211763 0.54159583388780419 0.0 0.015100391894701415 0.51587908208124011 0.0 0.69116690849121831 0.39912016828226493 0.0 -0.044651598468304909 0.42771899895968041 0.0 0.15592879509179791 0.33355203432201153 0.0 0.15840450065112077 0.32105463275422463 0.0 -0.056826608584794949 0.48111477477479425 0.0 -0.068919539146047037 -1.4155758671865251 0.0 0.010144302317311005 0.3346821162765683 0.0 -0.087456916618048275 0.48186618831323919 0.0 -0.033290954546520091 0.41973343160548648 0.0 0.018873186403295716 0.34355160493622428 0.0 0.10197997499450739 0.45834461184875469 0.0 0.0069280413317704265 0.52427724690947497 0.0 -0.0025141810001999554 0.46400861451037667 0.0 0.065946316039119296 0.34156552392820566 0.0 0.04974306220065261 -1.1825721071840058 0.0 0.087517792054764024 0.46656732243103727 0.0 0.071834883129661575 0.44760565650489709 0.0 0.027547380959597134 0.50104189274035538 0.0 -0.093961360062152777 0.46421340643094966 0.0 -0.031700501364223477 0.49599201896438655 0.0 -0.0056417862875031699 0.49063961796841404 0.0 0.033788541834987557 0.48557801271876089 0.0 0.10768679336214403 0.47632491721868603 0.0 </DataArray>
<DataArray Name="radii" format="ascii" type="Float32">0 1.4 1.4 1.4 1.4 1.4 1.4 1.4 1.4 1.4 1.4 1.4 1.4 1.4 1.4 1.4 1.4 1.4 1.4 1.4 1.4 1.4 1.4 1.4 1.4 1.4 1.4 1.4 1.4 1.4 1.4 1.4 1.4 1.4 1.4 1.4 1.4 1.4 1.4 1.4 1.4 1.4 1.4 1.4 1.4 1.4 1.4 1.4 1.4 1.4 1.4 1.4 1.4 1.4 1.4 1.4 1.4 1.4 1.4 1.4 1.4 1.4 1.4 1.4 1.4 1.4 1.4 1.4 1.4 1.4 1.4 1.4 1.4 1.4 1.4 1.4 1.4 1.4 1.4 1.4 1.4 1.4 1.4 1.4 1.4 1.4 1.4 1.4 1.4 </DataArray>
</PointData>
<CellData/>
</Piece>
</UnstructuredGrid>
</VTKFile>
