<?xml version="1.0" ?>
<VTKFile byte_order="LittleEndian" type="UnstructuredGrid" version="0.1">
<UnstructuredGrid>
<Piece NumberOfCells="0" NumberOfPoints="353">
<Points>
<DataArray NumberOfComponents="3" format="ascii" type="Float32">0 0 0 7.3190372224473128 2.2455155065574455 2 18.808166730352557 4.1891607963381174 2 33.421754599483315 5.757553419328735 2 42.851928374498797 6.1782249641972706 2 42.047369755466136 1.6095955734764666 2 53.68530532908877 3.0154426925329663 2 59.414166251254024 1.7878570755835879 2 71.872071384664494 1 2 73.403971593939204 2.2133014134169882 2 78.82252084715833 1 2 95.510831225629687 4.9013019786849279 2 7.9076098290896475 8.2939599305829326 2 14.173936697806408 1 2 32.06914693276385 2.4114454929482076 2 41.548701981925639 1 2 46.94094889632197 2.9762580364641624 2 58.66455469182268 2.2615614058972811 2 57.930353592811443 8.5375651831795842 2 70.62069924857775 5.5574455396300335 2 72.853398826877736 3.9435666507709777 2 79.005481354464322 7.4469398261037343 2 99.0 2.036317043619841 2 6.208127423126073 3.833813498990708 2 14.092227971852134 5.2394617556446486 2 29.97723481227758 6.2547283566580996 2 39.807310431565682 5.9964232851395147 2 45.093309029396721 2.5674041571468091 2 56.187762510334842 2.272289989479376 2 58.866072130194674 4.5724780981870277 2 69.327256021411429 1 2 70.821167591390918 4.0686469293491418 2 80.426949972631874 1.5464202430736653 2 95.653722258463986 8.3819783918826634 2 9.3191125023880446 4.0814877037359922 2 14.885492323894081 4.6235737459783017 2 33.423272792689133 3.3031854514116423 2 39.269677526618558 1 2 47.653315786045574 1.6540384678805193 2 55.260814720492604 4.1028533186461686 2 61.573186151171129 8.6843822646554951 2 66.784605748135419 4.7772028600518261 2 71.792132563537535 6.4645494208712249 2 80.770143291415195 4.4821834735664678 2 99.0 4.5484953901757113 2 4.9091252266682908 1 2 17.332298783867319 6.3453434165676565 2 31.873896040693651 5.8432836152792724 2 40.461470746379824 4.7341840303227505 2 43.275197541213608 1.8757674033823337 2 53.139814018966575 1 2 61.022126755629735 2.6758995427849128 2 70.333351546762373 1 2 72.923203114058197 1 2 80.159211503421119 3.3920897817723481 2 94.057850961553967 5.6401445100775467 2 5.67175083561514 4.698058431109752 2 13.628854246340891 3.3927971770621821 2 31.307037547286871 1.9390595174075889 2 40.301426976408038 2.4769725690134963 2 44.336469916359157 4.4388742219392681 2 56.754654020681414 2.9128816537140896 2 61.054712910477214 5.8877810165083728 2 67.423120576430307 7.4716219806017419 2 73.25391267456186 7.4868451303371497 2 78.136100988065053 5.538001391020261 2 99.0 2.036317043619841 2 5.3943673522775528 3.2052764607133071 2 16.305509130898812 7.0586029020023995 2 31.339043034389878 7.6551360647543181 2 37.998751348632844 4.0845640552516631 2 44.694918393402837 1 2 55.657221321545478 1.5392016565996707 2 59.17910550853189 3.4652480769704517 2 67.674300588612823 1 2 68.415441870664409 3.0990110815402181 2 81.984675154378436 2.7269453730742019 2 91.595123836795196 7.2129065218917381 2 8.7500730506716327 5.3622141214243904 2 16.998033528750099 3.3603239668885627 2 33.210447493398114 1 2 39.08472913876313 3.6209776281239243 2 48.497078315726007 2.1473985867685115 2 57.018502657280045 5.635259988213452 2 62.397498080279824 7.0800155872950796 2 65.861057336130671 6.3562471228737731 2 71.894183414782418 9.1157156243145732 2 81.380523343239503 7.8467551127331694 2 99.0 5.5415421066371575 2 6.1256191085443286 1 2 17.85352332043789 1.7588491688238241 2 32.070139857835649 4.9344851105085832 2 41.865409801423553 3.8258043590475035 2 44.12296790046851 1 2 55.16737373524402 2.6181578627020867 2 60.519257587779016 2.1674063780249626 2 71.364984638453123 1 2 71.860261921873587 2.9790893540801542 2 80.025895243607479 1 2 96.582578736252898 5.2021863526190408 2 8.8760669308562221 7.0240264281024514 2 15.346232914616197 1 2 32.600235234240472 1.5012875596633877 2 40.694324120256582 1.7959463356247565 2 46.84948742453367 2.1838201936997725 2 59.85337307361219 1 2 57.858136385293641 7.2098815446900719 2 68.709117553361182 6.130612247743759 2 71.635175109638354 5.466724585224342 2 80.109910674989621 8.5626772000742974 2 97.743310163686715 1.6456553009263755 2 6.8236902676245714 4.949475104382894 2 13.646131746723869 6.4804603310587581 2 29.827040121259216 8.493941870949282 2 38.493039386615848 7.4676575787254018 2 44.267671563338688 2.8791734375540079 2 57.106175541782022 2.1478014648706525 2 59.112533902268737 6.706736105821264 2 68.243358810060286 1 2 70.137092841881071 2.9061879609225545 2 82.584169088641929 1.0851090634209573 2 95.130097063948185 6.2094562380685652 2 10.482268445905413 2.9195617163098464 2 16.085510668643273 4.9913488025615846 2 32.32346463017582 3.2743696161369846 2 39.753519847328953 1.2332384369417981 2 45.848808405370818 1.8788900706170264 2 56.126755079703713 4.0767889492575247 2 64.571501168194715 8.3452879998905356 2 67.614527570489273 4.6607905211741398 2 73.046776660231458 5.9913858138340332 2 81.281464144469041 5.3494131162287779 2 97.337159020286478 3.7380266869534524 2 6.7019376149918051 1 2 17.055826243442688 5.2136397807801682 2 30.141626861119626 5.037593908142151 2 41.514959444096952 4.8454313943806895 2 42.640050145615142 4.1234505519254379 2 54.901974011734929 1 2 61.545131744289236 1.9758593195748733 2 68.786756016406144 1 2 72.385489338734956 1 2 79.324236770492845 3.0475917826455712 2 93.071251193948797 3.9330778761735337 2 6.6308435633607328 7.0032513424171245 2 13.625580866040146 1 2 29.92600799983564 1 2 40.951396391857777 1 2 45.740414846974609 5.2403883267959799 2 58.142417102630247 3.8931075753628308 2 60.077465651168758 7.1793306824148058 2 66.939147392592531 9.1694558882953867 2 75.674896658229883 8.6089373049894196 2 79.846416940010343 4.2160759096413933 2 99.0 2.96771543676727 2 4.7562966550351726 1.7944172444954058 2 16.435874833136335 8.937689877621052 2 33.259510245216894 7.2662365817955363 2 38.859825154213922 4.4241118256042604 2 45.270650648126292 1 2 54.279837603366801 1 2 57.827040386753083 2.2429268511424603 2 66.855869126057001 2.8629019489610639 2 69.170596638891212 3.6518058457893821 2 83.097439206665413 1 2 93.405099283669188 8.1564151366566069 2 8.6068261705733065 3.5741630134503009 2 16.316720305752415 3.9841600306074705 2 34.322137753213923 1.728769770398719 2 38.672617936538281 1 2 47.314910749228481 3.8745373921295685 2 55.888529609784314 5.2156767119739182 2 64.336287142010718 5.8272617909981239 2 66.770461493641392 6.0686230004979382 2 69.205772213922387 7.1242860674206483 2 79.539481146803311 5.8575427462845457 2 98.644938575730492 8.2369185011083133 2 7.3200298792925373 1 2 18.909096532045623 5.2803639392758264 2 34.290772036063593 6.3100144445508946 2 43.927512889491929 5.6728384260033868 2 43.519165978704883 1 2 54.3129504142603 2.5618658365805889 2 59.173010031323429 1 2 71.681296962132762 2.2312591984383894 2 73.18439402501015 3.0999486273559707 2 78.157977792536457 1 2 96.424491795637877 4.0809807873176887 2 6.1619500420781232 8.69037587517861 2 15.378538437457003 2.2274298444546794 2 31.083837514830027 1 2 42.259622628767779 1 2 45.985059728755068 2.718718482551497 2 57.443726395986985 1 2 59.71430867679328 8.5304794911180295 2 69.835566992615 4.9000463747268732 2 72.122128446914957 4.582914918999772 2 78.032871072494359 6.3080387238846498 2 98.603483351612965 1 2 7.7064442675009817 3.1822594598148193 2 12.988323100863539 4.035979245754465 2 29.762045584914581 7.2358052123221785 2 39.480989419483159 6.8325474555782888 2 46.215680136658229 3.7827083845051694 2 56.287466916342602 1 2 58.165645366934797 5.9265529158925085 2 70.119028158929893 2.1990184710806169 2 71.563236485684016 3.9027604281363066 2 79.401833630788261 1 2 96.970772695173295 7.5435087737520243 2 10.489297145431923 4.1095877336258271 2 15.570708100618283 2.9965469718271169 2 34.066442299619304 4.3521517548254831 2 39.424495265160559 2.6055004596778151 2 47.761889328521022 2.8097561282159011 2 54.325797926615472 4.4330245925301552 2 63.151448511340533 8.6296347079537927 2 66.39624632744605 3.7533865895227989 2 71.940122784766416 7.5683028671374295 2 81.871020884708912 4.2365346029916688 2 99.0 3.7144854773459084 2 6.3447823314697134 2.0676342355444683 2 17.654252981681164 7.8960169424092799 2 30.887967213721002 5.8357445502267096 2 40.915265431758719 2.8670958603782126 2 44.455634539414177 2.0087238105985419 2 53.72779523745092 1 2 60.774148004063044 4.2416075661174997 2 69.212263134820574 2.5087345384211037 2 72.58780214958108 2.3591733752711308 2 79.413143220174888 2.1457410336699492 2 93.196486167341163 5.8328503510980889 2 4.7152801610776294 4.9884983930508042 2 14.079290708997744 4.107355984807235 2 31.736006846498267 1 2 41.724185393568753 2.9250826836702633 2 43.725312698596476 3.6798153928639423 2 55.757072268400776 3.1022073975576698 2 60.309688434314907 5.5507018777854125 2 68.571072894738208 8.392955898555746 2 73.907774649562327 8.702313025039432 2 79.488779406870066 4.9824027388199852 2 99.0 1 2 6.750517029642797 2.8946030206956279 2 14.934693597014745 7.4829211151660608 2 31.608258941030037 9.2358725325787692 2 36.76351570786543 2.9772113329517715 2 43.482904281748446 2.6610206812672921 2 56.878479679927679 1 2 58.314576922200224 2.9792318719858168 2 68.525431942559521 2.0415895811568325 2 67.446275622927331 3.6170767254440404 2 81.192540565410724 3.5980500026196434 2 92.817493054655358 6.9433170578142187 2 8.0580981637593379 4.5650113356963891 2 17.805677970250585 2.8000517148068518 2 32.466017362509824 1 2 39.983720467066007 3.5160181603738252 2 49.456221698088427 2.2865832897686333 2 56.899122937561529 4.5384850932730947 2 63.375113278244172 5.5484613639565801 2 65.055247433436065 6.8738657193801522 2 70.172595217634054 8.8224794294809463 2 81.978444990933653 6.7685255096564969 2 99.0 6.7936468211627128 2 5.5298809749296085 1 2 18.717419508383568 1 2 32.710193128260556 4.0909696833299938 2 40.790226138953798 3.9415854533580821 2 42.913005792770136 1 2 54.462169074029937 1.8324143500022743 2 60.970993603799712 1 2 70.851293022672323 1 2 70.936044931524719 2.5182788914424186 2 80.826526643565515 1 2 97.663945129736291 5.3997424939150802 2 7.9157454891134318 6.520403036786993 2 14.666084256055486 2.8002657521432681 2 33.829084817198684 2.4880092357346082 2 40.299729968516552 1 2 47.068104387908789 1 2 59.714845370835057 2.6037584509826397 2 56.683404653510181 6.7260462450995853 2 70.049573801769682 6.1872281250264782 2 73.119818622092794 5.0920349014400381 2 78.766516639680177 9.519902770423883 2 97.672721143576567 1 2 7.3699465322702649 5.7107424672398768 2 14.746151880542415 6.2597372796894444 2 28.295463984864686 8.4903873783688066 2 40.483078333248429 7.549211543372266 2 43.428237132581451 4.6165743133636479 2 58.005150893997239 1 2 59.35556612567445 5.4242634971254304 2 67.118896726087627 1 2 70.018123047956124 3.9876434275126327 2 81.457820141083175 1 2 96.233638336220665 6.3274509671250128 2 9.7720318423079942 4.837884071597145 2 15.690914013439569 5.8249206654980759 2 31.519986611127813 3.9581103560619901 2 38.80967125095016 1.9359545323463854 2 45.886938562524193 1 2 57.268916431269282 3.6130474300115547 2 63.706148167589625 7.034153324279167 2 68.497825735227082 4.2699706986150616 2 74.312859212301262 4.9467459434509191 2 80.884670897080724 6.1338262661737719 2 97.924154311894213 4.3769279172435027 2 5.6680592836331058 2.4597911659971023 2 17.600438289017603 3.9754695149201731 2 29.624280883350462 4.3414176743831083 2 42.516451433224653 5.2547489752856134 2 42.777103454306619 2.9594274888485264 2 55.591737814946647 1 2 60.400061397012948 1 2 69.841570668330789 1 2 73.431238303730993 1 2 80.215246785936259 2.4909147519044206 2 93.848484983816221 3.2673573364145052 2 5.9206837260768506 5.7500540340733179 2 14.295194609409926 1.9763907752587624 2 29.385092074713551 1 2 42.068350276211035 2.3601417682666499 2 45.137015739808071 4.4193940752704979 2 57.885285577330926 4.895406174155398 2 61.204546364543496 7.2198056650450209 2 66.037655756899554 7.9462034425964845 2 75.337297941877281 7.2228137865568609 2 78.478301499320878 4.5864763545391201 2 97.865311717182564 2.8838027428038542 2 4.2358667818854618 1 2 14.897977654451122 8.7166724373568076 2 32.215377085194376 6.8880576576541905 2 39.595329284790068 5.0946861332816775 2 46.482038474599527 1 2 53.135911053701093 2.4840927458629536 2 58.573375906198123 1 2 67.789931188390028 2.5005116773583738 2 68.633307386398542 5.2001786427158159 2 82.069898879611912 1 2 94.594483596551001 7.2218873191374557 2 7.1672499170052504 3.9734094078810438 2 15.276912980280795 3.8522550729218148 2 33.008111144380067 2.4130094256634749 2 38.566603522695615 2.8207993328501897 2 48.386726484099903 3.8907908059778147 2 55.412912965233133 5.8453502335676895 2 62.464973819110035 5.9791080081196535 2 67.667908984339363 6.262731859253484 2 70.502942895371632 7.4614736777027675 2 79.99100131137196 6.8103343917474977 2 97.805287487832501 6.4929057036021414 2 </DataArray>
</Points>
<Cells>
<DataArray Name="connectivity" format="ascii" type="Int32">0</DataArray>
<DataArray Name="offsets" format="ascii" type="Int32">0</DataArray>
<DataArray Name="types" format="ascii" type="UInt8">1</DataArray>
</Cells>
<PointData>
<DataArray Name="Points" NumberOfComponents="3" format="ascii" type="Float32">0 0 0 7.3190372224473128 2.2455155065574455 2 18.808166730352557 4.1891607963381174 2 33.421754599483315 5.757553419328735 2 42.851928374498797 6.1782249641972706 2 42.047369755466136 1.6095955734764666 2 53.68530532908877 3.0154426925329663 2 59.414166251254024 1.7878570755835879 2 71.872071384664494 1 2 73.403971593939204 2.2133014134169882 2 78.82252084715833 1 2 95.510831225629687 4.9013019786849279 2 7.9076098290896475 8.2939599305829326 2 14.173936697806408 1 2 32.06914693276385 2.4114454929482076 2 41.548701981925639 1 2 46.94094889632197 2.9762580364641624 2 58.66455469182268 2.2615614058972811 2 57.930353592811443 8.5375651831795842 2 70.62069924857775 5.5574455396300335 2 72.853398826877736 3.9435666507709777 2 79.005481354464322 7.4469398261037343 2 99.0 2.036317043619841 2 6.208127423126073 3.833813498990708 2 14.092227971852134 5.2394617556446486 2 29.97723481227758 6.2547283566580996 2 39.807310431565682 5.9964232851395147 2 45.093309029396721 2.5674041571468091 2 56.187762510334842 2.272289989479376 2 58.866072130194674 4.5724780981870277 2 69.327256021411429 1 2 70.821167591390918 4.0686469293491418 2 80.426949972631874 1.5464202430736653 2 95.653722258463986 8.3819783918826634 2 9.3191125023880446 4.0814877037359922 2 14.885492323894081 4.6235737459783017 2 33.423272792689133 3.3031854514116423 2 39.269677526618558 1 2 47.653315786045574 1.6540384678805193 2 55.260814720492604 4.1028533186461686 2 61.573186151171129 8.6843822646554951 2 66.784605748135419 4.7772028600518261 2 71.792132563537535 6.4645494208712249 2 80.770143291415195 4.4821834735664678 2 99.0 4.5484953901757113 2 4.9091252266682908 1 2 17.332298783867319 6.3453434165676565 2 31.873896040693651 5.8432836152792724 2 40.461470746379824 4.7341840303227505 2 43.275197541213608 1.8757674033823337 2 53.139814018966575 1 2 61.022126755629735 2.6758995427849128 2 70.333351546762373 1 2 72.923203114058197 1 2 80.159211503421119 3.3920897817723481 2 94.057850961553967 5.6401445100775467 2 5.67175083561514 4.698058431109752 2 13.628854246340891 3.3927971770621821 2 31.307037547286871 1.9390595174075889 2 40.301426976408038 2.4769725690134963 2 44.336469916359157 4.4388742219392681 2 56.754654020681414 2.9128816537140896 2 61.054712910477214 5.8877810165083728 2 67.423120576430307 7.4716219806017419 2 73.25391267456186 7.4868451303371497 2 78.136100988065053 5.538001391020261 2 99.0 2.036317043619841 2 5.3943673522775528 3.2052764607133071 2 16.305509130898812 7.0586029020023995 2 31.339043034389878 7.6551360647543181 2 37.998751348632844 4.0845640552516631 2 44.694918393402837 1 2 55.657221321545478 1.5392016565996707 2 59.17910550853189 3.4652480769704517 2 67.674300588612823 1 2 68.415441870664409 3.0990110815402181 2 81.984675154378436 2.7269453730742019 2 91.595123836795196 7.2129065218917381 2 8.7500730506716327 5.3622141214243904 2 16.998033528750099 3.3603239668885627 2 33.210447493398114 1 2 39.08472913876313 3.6209776281239243 2 48.497078315726007 2.1473985867685115 2 57.018502657280045 5.635259988213452 2 62.397498080279824 7.0800155872950796 2 65.861057336130671 6.3562471228737731 2 71.894183414782418 9.1157156243145732 2 81.380523343239503 7.8467551127331694 2 99.0 5.5415421066371575 2 6.1256191085443286 1 2 17.85352332043789 1.7588491688238241 2 32.070139857835649 4.9344851105085832 2 41.865409801423553 3.8258043590475035 2 44.12296790046851 1 2 55.16737373524402 2.6181578627020867 2 60.519257587779016 2.1674063780249626 2 71.364984638453123 1 2 71.860261921873587 2.9790893540801542 2 80.025895243607479 1 2 96.582578736252898 5.2021863526190408 2 8.8760669308562221 7.0240264281024514 2 15.346232914616197 1 2 32.600235234240472 1.5012875596633877 2 40.694324120256582 1.7959463356247565 2 46.84948742453367 2.1838201936997725 2 59.85337307361219 1 2 57.858136385293641 7.2098815446900719 2 68.709117553361182 6.130612247743759 2 71.635175109638354 5.466724585224342 2 80.109910674989621 8.5626772000742974 2 97.743310163686715 1.6456553009263755 2 6.8236902676245714 4.949475104382894 2 13.646131746723869 6.4804603310587581 2 29.827040121259216 8.493941870949282 2 38.493039386615848 7.4676575787254018 2 44.267671563338688 2.8791734375540079 2 57.106175541782022 2.1478014648706525 2 59.112533902268737 6.706736105821264 2 68.243358810060286 1 2 70.137092841881071 2.9061879609225545 2 82.584169088641929 1.0851090634209573 2 95.130097063948185 6.2094562380685652 2 10.482268445905413 2.9195617163098464 2 16.085510668643273 4.9913488025615846 2 32.32346463017582 3.2743696161369846 2 39.753519847328953 1.2332384369417981 2 45.848808405370818 1.8788900706170264 2 56.126755079703713 4.0767889492575247 2 64.571501168194715 8.3452879998905356 2 67.614527570489273 4.6607905211741398 2 73.046776660231458 5.9913858138340332 2 81.281464144469041 5.3494131162287779 2 97.337159020286478 3.7380266869534524 2 6.7019376149918051 1 2 17.055826243442688 5.2136397807801682 2 30.141626861119626 5.037593908142151 2 41.514959444096952 4.8454313943806895 2 42.640050145615142 4.1234505519254379 2 54.901974011734929 1 2 61.545131744289236 1.9758593195748733 2 68.786756016406144 1 2 72.385489338734956 1 2 79.324236770492845 3.0475917826455712 2 93.071251193948797 3.9330778761735337 2 6.6308435633607328 7.0032513424171245 2 13.625580866040146 1 2 29.92600799983564 1 2 40.951396391857777 1 2 45.740414846974609 5.2403883267959799 2 58.142417102630247 3.8931075753628308 2 60.077465651168758 7.1793306824148058 2 66.939147392592531 9.1694558882953867 2 75.674896658229883 8.6089373049894196 2 79.846416940010343 4.2160759096413933 2 99.0 2.96771543676727 2 4.7562966550351726 1.7944172444954058 2 16.435874833136335 8.937689877621052 2 33.259510245216894 7.2662365817955363 2 38.859825154213922 4.4241118256042604 2 45.270650648126292 1 2 54.279837603366801 1 2 57.827040386753083 2.2429268511424603 2 66.855869126057001 2.8629019489610639 2 69.170596638891212 3.6518058457893821 2 83.097439206665413 1 2 93.405099283669188 8.1564151366566069 2 8.6068261705733065 3.5741630134503009 2 16.316720305752415 3.9841600306074705 2 34.322137753213923 1.728769770398719 2 38.672617936538281 1 2 47.314910749228481 3.8745373921295685 2 55.888529609784314 5.2156767119739182 2 64.336287142010718 5.8272617909981239 2 66.770461493641392 6.0686230004979382 2 69.205772213922387 7.1242860674206483 2 79.539481146803311 5.8575427462845457 2 98.644938575730492 8.2369185011083133 2 7.3200298792925373 1 2 18.909096532045623 5.2803639392758264 2 34.290772036063593 6.3100144445508946 2 43.927512889491929 5.6728384260033868 2 43.519165978704883 1 2 54.3129504142603 2.5618658365805889 2 59.173010031323429 1 2 71.681296962132762 2.2312591984383894 2 73.18439402501015 3.0999486273559707 2 78.157977792536457 1 2 96.424491795637877 4.0809807873176887 2 6.1619500420781232 8.69037587517861 2 15.378538437457003 2.2274298444546794 2 31.083837514830027 1 2 42.259622628767779 1 2 45.985059728755068 2.718718482551497 2 57.443726395986985 1 2 59.71430867679328 8.5304794911180295 2 69.835566992615 4.9000463747268732 2 72.122128446914957 4.582914918999772 2 78.032871072494359 6.3080387238846498 2 98.603483351612965 1 2 7.7064442675009817 3.1822594598148193 2 12.988323100863539 4.035979245754465 2 29.762045584914581 7.2358052123221785 2 39.480989419483159 6.8325474555782888 2 46.215680136658229 3.7827083845051694 2 56.287466916342602 1 2 58.165645366934797 5.9265529158925085 2 70.119028158929893 2.1990184710806169 2 71.563236485684016 3.9027604281363066 2 79.401833630788261 1 2 96.970772695173295 7.5435087737520243 2 10.489297145431923 4.1095877336258271 2 15.570708100618283 2.9965469718271169 2 34.066442299619304 4.3521517548254831 2 39.424495265160559 2.6055004596778151 2 47.761889328521022 2.8097561282159011 2 54.325797926615472 4.4330245925301552 2 63.151448511340533 8.6296347079537927 2 66.39624632744605 3.7533865895227989 2 71.940122784766416 7.5683028671374295 2 81.871020884708912 4.2365346029916688 2 99.0 3.7144854773459084 2 6.3447823314697134 2.0676342355444683 2 17.654252981681164 7.8960169424092799 2 30.887967213721002 5.8357445502267096 2 40.915265431758719 2.8670958603782126 2 44.455634539414177 2.0087238105985419 2 53.72779523745092 1 2 60.774148004063044 4.2416075661174997 2 69.212263134820574 2.5087345384211037 2 72.58780214958108 2.3591733752711308 2 79.413143220174888 2.1457410336699492 2 93.196486167341163 5.8328503510980889 2 4.7152801610776294 4.9884983930508042 2 14.079290708997744 4.107355984807235 2 31.736006846498267 1 2 41.724185393568753 2.9250826836702633 2 43.725312698596476 3.6798153928639423 2 55.757072268400776 3.1022073975576698 2 60.309688434314907 5.5507018777854125 2 68.571072894738208 8.392955898555746 2 73.907774649562327 8.702313025039432 2 79.488779406870066 4.9824027388199852 2 99.0 1 2 6.750517029642797 2.8946030206956279 2 14.934693597014745 7.4829211151660608 2 31.608258941030037 9.2358725325787692 2 36.76351570786543 2.9772113329517715 2 43.482904281748446 2.6610206812672921 2 56.878479679927679 1 2 58.314576922200224 2.9792318719858168 2 68.525431942559521 2.0415895811568325 2 67.446275622927331 3.6170767254440404 2 81.192540565410724 3.5980500026196434 2 92.817493054655358 6.9433170578142187 2 8.0580981637593379 4.5650113356963891 2 17.805677970250585 2.8000517148068518 2 32.466017362509824 1 2 39.983720467066007 3.5160181603738252 2 49.456221698088427 2.2865832897686333 2 56.899122937561529 4.5384850932730947 2 63.375113278244172 5.5484613639565801 2 65.055247433436065 6.8738657193801522 2 70.172595217634054 8.8224794294809463 2 81.978444990933653 6.7685255096564969 2 99.0 6.7936468211627128 2 5.5298809749296085 1 2 18.717419508383568 1 2 32.710193128260556 4.0909696833299938 2 40.790226138953798 3.9415854533580821 2 42.913005792770136 1 2 54.462169074029937 1.8324143500022743 2 60.970993603799712 1 2 70.851293022672323 1 2 70.936044931524719 2.5182788914424186 2 80.826526643565515 1 2 97.663945129736291 5.3997424939150802 2 7.9157454891134318 6.520403036786993 2 14.666084256055486 2.8002657521432681 2 33.829084817198684 2.4880092357346082 2 40.299729968516552 1 2 47.068104387908789 1 2 59.714845370835057 2.6037584509826397 2 56.683404653510181 6.7260462450995853 2 70.049573801769682 6.1872281250264782 2 73.119818622092794 5.0920349014400381 2 78.766516639680177 9.519902770423883 2 97.672721143576567 1 2 7.3699465322702649 5.7107424672398768 2 14.746151880542415 6.2597372796894444 2 28.295463984864686 8.4903873783688066 2 40.483078333248429 7.549211543372266 2 43.428237132581451 4.6165743133636479 2 58.005150893997239 1 2 59.35556612567445 5.4242634971254304 2 67.118896726087627 1 2 70.018123047956124 3.9876434275126327 2 81.457820141083175 1 2 96.233638336220665 6.3274509671250128 2 9.7720318423079942 4.837884071597145 2 15.690914013439569 5.8249206654980759 2 31.519986611127813 3.9581103560619901 2 38.80967125095016 1.9359545323463854 2 45.886938562524193 1 2 57.268916431269282 3.6130474300115547 2 63.706148167589625 7.034153324279167 2 68.497825735227082 4.2699706986150616 2 74.312859212301262 4.9467459434509191 2 80.884670897080724 6.1338262661737719 2 97.924154311894213 4.3769279172435027 2 5.6680592836331058 2.4597911659971023 2 17.600438289017603 3.9754695149201731 2 29.624280883350462 4.3414176743831083 2 42.516451433224653 5.2547489752856134 2 42.777103454306619 2.9594274888485264 2 55.591737814946647 1 2 60.400061397012948 1 2 69.841570668330789 1 2 73.431238303730993 1 2 80.215246785936259 2.4909147519044206 2 93.848484983816221 3.2673573364145052 2 5.9206837260768506 5.7500540340733179 2 14.295194609409926 1.9763907752587624 2 29.385092074713551 1 2 42.068350276211035 2.3601417682666499 2 45.137015739808071 4.4193940752704979 2 57.885285577330926 4.895406174155398 2 61.204546364543496 7.2198056650450209 2 66.037655756899554 7.9462034425964845 2 75.337297941877281 7.2228137865568609 2 78.478301499320878 4.5864763545391201 2 97.865311717182564 2.8838027428038542 2 4.2358667818854618 1 2 14.897977654451122 8.7166724373568076 2 32.215377085194376 6.8880576576541905 2 39.595329284790068 5.0946861332816775 2 46.482038474599527 1 2 53.135911053701093 2.4840927458629536 2 58.573375906198123 1 2 67.789931188390028 2.5005116773583738 2 68.633307386398542 5.2001786427158159 2 82.069898879611912 1 2 94.594483596551001 7.2218873191374557 2 7.1672499170052504 3.9734094078810438 2 15.276912980280795 3.8522550729218148 2 33.008111144380067 2.4130094256634749 2 38.566603522695615 2.8207993328501897 2 48.386726484099903 3.8907908059778147 2 55.412912965233133 5.8453502335676895 2 62.464973819110035 5.9791080081196535 2 67.667908984339363 6.262731859253484 2 70.502942895371632 7.4614736777027675 2 79.99100131137196 6.8103343917474977 2 97.805287487832501 6.4929057036021414 2 </DataArray>