<?xml version="1.0" ?>
<VTKFile byte_order="LittleEndian" type="UnstructuredGrid" version="0.1">
<UnstructuredGrid>
<Piece NumberOfCells="0" NumberOfPoints="16">
<Points>
<DataArray NumberOfComponents="3" format="ascii" type="Float32">3.6554993899721167 1.0601917822672522 2 12.574639633467585 1.7887736884292533 2 27.474777883941858 1.7139001872167723 2 48.167228373555247 1 2 51.923401798644093 1 2 75.436910161729145 2.5232771830050571 2 83.80333062193364 1 2 91.549566101497547 1.2045305617149957 2 5.0320065930729463 2.5141285535740003 2 10.738011714408538 1 2 29.341475044913132 1 2 47.55188167519286 2.9524570140596946 2 52.198134033487314 3.0367639260942845 2 76.722555916098727 1 2 84.53650045625642 2.9071614228071465 2 93.349346675933205 2.0817386892596197 2 </DataArray>
</Points>
<Cells>
<DataArray Name="connectivity" format="ascii" type="Int32">0</DataArray>
<DataArray Name="offsets" format="ascii" type="Int32">0</DataArray>
<DataArray Name="types" format="ascii" type="UInt8">1</DataArray>
</Cells>
<PointData>
<DataArray Name="Points" NumberOfComponents="3" format="ascii" type="Float32">3.6554993899721167 1.0601917822672522 2 12.574639633467585 1.7887736884292533 2 27.474777883941858 1.7139001872167723 2 48.167228373555247 1 2 51.923401798644093 1 2 75.436910161729145 2.5232771830050571 2 83.80333062193364 1 2 91.549566101497547 1.2045305617149957 2 5.0320065930729463 2.5141285535740003 2 10.738011714408538 1 2 29.341475044913132 1 2 47.55188167519286 2.9524570140596946 2 52.198134033487314 3.0367639260942845 2 76.722555916098727 1 2 84.53650045625642 2.9071614228071465 2 93.349346675933205 2.0817386892596197 2 </DataArray>
<DataArray Name="forces" NumberOfComponents="3" format="ascii" type="Float32">0.0 0.0 0.0 0.0 0.0 0.0 0.0 0.0 0.0 0.0044783914089469891 -0.014779591525789998 0.0 -0.0024527630093636155 -0.019052732409933638 0.0 0.0 0.0 0.0 -0.0047861567084621645 -0.012906845050313014 0.0 0.0 0.0 0.0 0.0 0.0 0.0 0.0 0.0 0.0 0.0 0.0 0.0 -0.0044783914089469891 0.014779591525789998 0.0 0.0024527630093636155 0.019052732409933638 0.0 0.0 0.0 0.0 0.0047861567084621645 0.012906845050313014 0.0 0.0 0.0 0.0 </DataArray>
<DataArray Name="radii" format="ascii" type="Float32">1 1 1 1 1 1 1 1 1 1 1 1 1 1 1 1 </DataArray>
</PointData>
<CellData/>
</Piece>
</UnstructuredGrid>
</VTKFile>
