<?xml version="1.0" ?>
<VTKFile byte_order="LittleEndian" type="UnstructuredGrid" version="0.1">
<UnstructuredGrid>
<Piece NumberOfCells="0" NumberOfPoints="89">
<Points>
<DataArray NumberOfComponents="3" format="ascii" type="Float32">0 0 0 7.2370806644576016 1.2 2 18.466202495759195 3.9749532280791771 2 33.492446852876917 4.8730233825375935 2 42.990759855218805 4.8132977968099144 2 42.992805119427665 1.2 2 53.723363656826315 2.8772388088346963 2 60.466200904122964 1.2 2 70.814384464388937 1.2 2 71.865399452844471 2.8515925735279328 2 78.692315651740785 1.2 2 96.724025191402845 4.995530306625712 2 8.0333752291794873 7.1681808726780787 2 14.579251369675379 1.2 2 31.238506176454926 1.2 2 40.947791649672823 1.2 2 46.060008862755296 2.9634387759667868 2 58.45896658612002 1.2 2 59.013532628101501 6.8495021612403706 2 69.477240560712076 6.2429943498706315 2 72.840533076751129 4.7220642030392996 2 78.399249014151636 7.6036320259229671 2 98.8 1.2 2 6.6207616831683271 4.0311621992772668 2 14.537602806751082 6.3120761341333376 2 29.372411737391914 6.5428455465289739 2 39.642413550830284 6.6108761571103614 2 44.123419054015649 2.9359926825085458 2 56.619545214177826 1.2 2 58.523826090396135 4.7683069368515802 2 68.733217370250372 1.2 2 70.777964600586756 4.5559842134691113 2 80.704364553883067 1.2 2 95.199483175200626 6.6906969000868282 2 10.269162231652233 4.0043575387962784 2 14.786767070856534 4.392805313965372 2 33.442045986142269 2.8173376614005887 2 38.993782587017748 1.2 2 46.941018792061314 1.2 2 55.027914538813974 4.5639701029539115 2 62.867611480160058 8.2441291613764793 2 66.723509240865283 4.7537819240151729 2 71.703452089656253 6.5748912036627116 2 80.382534716401153 4.5738659339380279 2 98.8 4.6874363341322978 2 5.5338845944093764 1.2 2 16.826501474251071 5.9605255128672976 2 31.534578436878423 5.5836056907035019 2 41.047421810315413 4.861416473893807 2 42.222020659897275 2.8878937770067541 2 54.651831000367821 1.2 2 61.43856938288328 2.7802124133698447 2 69.797397241044621 2.7536082517247844 2 72.835128926340744 1.2 2 79.740546755984056 2.7948633363628983 2 94.435186181134171 4.6807885309203989 2 5.9301168239692617 6.1608227622344742 2 13.578522262967544 2.9425482585587859 2 31.736319253945407 3.3749964442639429 2 40.429422867283542 2.9631268480319384 2 45.001978726148778 4.8258810622573547 2 57.442653491116609 3.1595788876105941 2 61.282469536445333 6.5395760328866634 2 67.486251998429012 6.949682535922955 2 73.937542909900856 6.7485000261163641 2 78.591339957709778 5.4087911894216463 2 98.13697278057893 2.982662161017859 2 5.3310428102945622 2.7794510391824252 2 14.173397191562161 8.4695987955033658 2 31.301096904588629 7.7611770952049195 2 39.011796122568924 4.5266138875264179 2 44.990088369303052 1.2 2 55.708138301425343 2.8627065461627095 2 59.411415481303038 2.8431733542165412 2 67.674317562974849 2.7855662384501563 2 68.674123418137853 4.4204695913957428 2 81.736874044518672 2.9361026709968052 2 92.855499214069383 6.8713246841074609 2 8.3915155905457937 5.0380574272745022 2 16.760797598522046 3.7611962596336346 2 33.090042604909321 1.2 2 38.615327510014495 2.6158947349692974 2 48.008265959103738 2.9810957011738242 2 56.716085561626613 5.6241294743154784 2 63.418108206063259 6.1534024899215263 2 65.425417868217394 6.5097718561458491 2 70.20391794720986 8.3016161748515884 2 81.064968339993328 6.6288046203258935 2 98.799999999999997 6.8331138156771614 2 </DataArray>
</Points>
<Cells>
<DataArray Name="connectivity" format="ascii" type="Int32">0</DataArray>
<DataArray Name="offsets" format="ascii" type="Int32">0</DataArray>
<DataArray Name="types" format="ascii" type="UInt8">1</DataArray>
</Cells>
<PointData>
<DataArray Name="Points" NumberOfComponents="3" format="ascii" type="Float32">0 0 0 7.2370806644576016 1.2 2 18.466202495759195 3.9749532280791771 2 33.492446852876917 4.8730233825375935 2 42.990759855218805 4.8132977968099144 2 42.992805119427665 1.2 2 53.723363656826315 2.8772388088346963 2 60.466200904122964 1.2 2 70.814384464388937 1.2 2 71.865399452844471 2.8515925735279328 2 78.692315651740785 1.2 2 96.724025191402845 4.995530306625712 2 8.0333752291794873 7.1681808726780787 2 14.579251369675379 1.2 2 31.238506176454926 1.2 2 40.947791649672823 1.2 2 46.060008862755296 2.9634387759667868 2 58.45896658612002 1.2 2 59.013532628101501 6.8495021612403706 2 69.477240560712076 6.2429943498706315 2 72.840533076751129 4.7220642030392996 2 78.399249014151636 7.6036320259229671 2 98.8 1.2 2 6.6207616831683271 4.0311621992772668 2 14.537602806751082 6.3120761341333376 2 29.372411737391914 6.5428455465289739 2 39.642413550830284 6.6108761571103614 2 44.123419054015649 2.9359926825085458 2 56.619545214177826 1.2 2 58.523826090396135 4.7683069368515802 2 68.733217370250372 1.2 2 70.777964600586756 4.5559842134691113 2 80.704364553883067 1.2 2 95.199483175200626 6.6906969000868282 2 10.269162231652233 4.0043575387962784 2 14.786767070856534 4.392805313965372 2 33.442045986142269 2.8173376614005887 2 38.993782587017748 1.2 2 46.941018792061314 1.2 2 55.027914538813974 4.5639701029539115 2 62.867611480160058 8.2441291613764793 2 66.723509240865283 4.7537819240151729 2 71.703452089656253 6.5748912036627116 2 80.382534716401153 4.5738659339380279 2 98.8 4.6874363341322978 2 5.5338845944093764 1.2 2 16.826501474251071 5.9605255128672976 2 31.534578436878423 5.5836056907035019 2 41.047421810315413 4.861416473893807 2 42.222020659897275 2.8878937770067541 2 54.651831000367821 1.2 2 61.43856938288328 2.7802124133698447 2 69.797397241044621 2.7536082517247844 2 72.835128926340744 1.2 2 79.740546755984056 2.7948633363628983 2 94.435186181134171 4.6807885309203989 2 5.9301168239692617 6.1608227622344742 2 13.578522262967544 2.9425482585587859 2 31.736319253945407 3.3749964442639429 2 40.429422867283542 2.9631268480319384 2 45.001978726148778 4.8258810622573547 2 57.442653491116609 3.1595788876105941 2 61.282469536445333 6.5395760328866634 2 67.486251998429012 6.949682535922955 2 73.937542909900856 6.7485000261163641 2 78.591339957709778 5.4087911894216463 2 98.13697278057893 2.982662161017859 2 5.3310428102945622 2.7794510391824252 2 14.173397191562161 8.4695987955033658 2 31.301096904588629 7.7611770952049195 2 39.011796122568924 4.5266138875264179 2 44.990088369303052 1.2 2 55.708138301425343 2.8627065461627095 2 59.411415481303038 2.8431733542165412 2 67.674317562974849 2.7855662384501563 2 68.674123418137853 4.4204695913957428 2 81.736874044518672 2.9361026709968052 2 92.855499214069383 6.8713246841074609 2 8.3915155905457937 5.0380574272745022 2 16.760797598522046 3.7611962596336346 2 33.090042604909321 1.2 2 38.615327510014495 2.6158947349692974 2 48.008265959103738 2.9810957011738242 2 56.716085561626613 5.6241294743154784 2 63.418108206063259 6.1534024899215263 2 65.425417868217394 6.5097718561458491 2 70.20391794720986 8.3016161748515884 2 81.064968339993328 6.6288046203258935 2 98.799999999999997 6.8331138156771614 2 </DataArray>
<DataArray Name="forces" NumberOfComponents="3" format="ascii" type="Float32">0 0 0 -0.028973123280683133 -0.24298569203524262 0.0 0.024131121799256916 0.33862617392264194 0.0 -0.036869796220659126 0.29275320453285986 0.0 0.019166809471552977 0.29685802448609683 0.0 -0.0048638741603223012 -0.78324838933769159 0.0 -0.0042177896253448588 0.24754439367097072 0.0 0.0045611704936558417 -0.84611064869512287 0.0 -0.00020861536041860695 -0.83425380165456464 0.0 0.0086743778510087188 0.22191026065665229 0.0 0.018268844528934292 -0.72908172653459946 0.0 -0.018354572180075537 0.22514059357630742 0.0 0.021432257992872385 0.26738116810078355 0.0 0.040156966522129744 -0.91794297090954458 0.0 -0.044099259845909677 -0.6202005376175318 0.0 0.080956940073144273 -0.77240672139808442 0.0 -0.0024526724632928931 0.20751090672298364 0.0 0.0044459035323559104 -0.60961363253528889 0.0 -0.049811327272491109 0.27270554919334394 0.0 0.052249229376214498 0.26598601741115552 0.0 0.010384745030277726 0.26605611364899812 0.0 0.026288507419859768 0.21728491931259541 0.0 0.8676817075484542 -0.47301974320740792 0.0 -0.031310035080465537 0.21760275526150713 0.0 -0.041071876909167165 0.24220032412721579 0.0 0.048813517614965607 0.25401657334405081 0.0 -0.074819028543247901 0.22439218688574447 0.0 -0.018046690636586038 0.2286694253490425 0.0 0.0075546936702989564 -0.69663619136024013 0.0 -0.033267898383753602 0.24489009903671299 0.0 -0.001816388538271152 -0.84340816931470686 0.0 0.014922935845440799 0.24132471605473998 0.0 0.0088668842240674506 -0.79297918887139041 0.0 0.056818255830805499 0.32254742626081456 0.0 -0.036524815907942348 0.23676325936202886 0.0 0.027517819914080324 0.25412904181062224 0.0 0.076643410824743907 0.26338659436974393 0.0 0.063439139836896641 -1.001170140114338 0.0 -0.0015198680138531484 -0.66578545206777606 0.0 0.059851898614029397 0.21701575549133154 0.0 -0.0097925384731580092 0.2847452960816359 0.0 -0.025521441560464098 0.26175930961160954 0.0 0.019482191525718187 0.28205874072542669 0.0 0.067574869152420031 0.25988235261654768 0.0 0.5065251858316302 0.23566855572513029 0.0 -0.075647421371014475 -0.79851420749751534 0.0 -0.053689013638354634 0.17715479711462329 0.0 -0.030600511869922187 0.23851365105497824 0.0 -0.030557001112995225 0.21875857733448711 0.0 -0.014468381093993399 0.30187867453020106 0.0 -0.010357097116154873 -0.7880288647174809 0.0 0.005754116364549644 0.22170313270599398 0.0 -0.0064084501985833264 0.23306802842398361 0.0 0.0066972417472991319 -0.76657278030387488 0.0 0.0055928786101001604 0.25314978337842065 0.0 -0.023155413563129279 0.33051918727566465 0.0 0.019454251896198017 0.25134608862719054 0.0 -0.02750156937340073 0.22793788228987658 0.0 0.026994847507050002 0.20595375964733778 0.0 -0.075635490491043122 0.16452243118898396 0.0 0.024941870728340865 0.24244474244042016 0.0 -0.0099577085652537423 0.21652014100927797 0.0 -0.033572293083397681 0.27743988727701896 0.0 0.041896443222168178 0.23038104573827739 0.0 0.013478595169658131 0.28912174947788238 0.0 0.042638865341578562 0.19493208231652814 0.0 -0.069003749582921797 0.21869794153527039 0.0 -0.039364507721977693 0.1734529482473208 0.0 0.029336922095812581 0.25975813886361748 0.0 0.080218601068605233 0.27745547265501985 0.0 -0.017133455268502393 0.21464849263024588 0.0 -0.018719149013183112 -0.70565311189564217 0.0 -0.016535966983080685 0.16739645025234628 0.0 -0.004688501231777914 0.22418818449002204 0.0 -0.0055670953985672567 0.24139423387726422 0.0 -0.0068670363385994193 0.27440501966414876 0.0 0.018202080209013538 0.20695328736322713 0.0 0.034027428087727955 0.24004198337679913 0.0 -0.038876098790176145 0.24717240511687757 0.0 0.056116057940130859 0.1376910831306305 0.0 -0.065510731048221776 -0.74071728112378876 0.0 -0.13570810193775124 0.20026190989349985 0.0 -0.0012725544378917597 0.22487611275544087 0.0 0.008765974325870677 0.37292796234370423 0.0 -0.020533608620047106 0.28362680344154478 0.0 -0.00026254474887499324 0.33571776648983642 0.0 -0.0026609370835578988 0.2923114773471539 0.0 -0.0057412877392226773 0.30059773820944424 0.0 0.0 0.25675242691154265 0.0 </DataArray>
<DataArray Name="radii" format="ascii" type="Float32">0 1.2 1.2 1.2 1.2 1.2 1.2 1.2 1.2 1.2 1.2 1.2 1.2 1.2 1.2 1.2 1.2 1.2 1.2 1.2 1.2 1.2 1.2 1.2 1.2 1.2 1.2 1.2 1.2 1.2 1.2 1.2 1.2 1.2 1.2 1.2 1.2 1.2 1.2 1.2 1.2 1.2 1.2 1.2 1.2 1.2 1.2 1.2 1.2 1.2 1.2 1.2 1.2 1.2 1.2 1.2 1.2 1.2 1.2 1.2 1.2 1.2 1.2 1.2 1.2 1.2 1.2 1.2 1.2 1.2 1.2 1.2 1.2 1.2 1.2 1.2 1.2 1.2 1.2 1.2 1.2 1.2 1.2 1.2 1.2 1.2 1.2 1.2 1.2 </DataArray>
</PointData>
<CellData/>
</Piece>
</UnstructuredGrid>
</VTKFile>
