<?xml version="1.0" ?>
<VTKFile byte_order="LittleEndian" type="UnstructuredGrid" version="0.1">
<UnstructuredGrid>
<Piece NumberOfCells="0" NumberOfPoints="256">
<Points>
<DataArray NumberOfComponents="3" format="ascii" type="Float32">1 1 2 10.948132975482475 1 2 28.137122639140077 5.0630763006203487 2 47.275343248705141 5.3416209898186553 2 51.906667373020298 1 2 73.981781653820804 1 2 84.287854535231943 1 2 91.845455102560308 1 2 3.8392763045973823 5.4325823088765315 2 13.084869315805729 1 2 28.283044017377964 1.6024520198883214 2 48.441174695553705 6.5930265999643272 2 52.196044748802812 7.7476961030723928 2 77.310968701355293 4.4097644475926279 2 87.137593907355509 7.7465861976218848 2 95.440880873036605 3.7517130139116333 2 3.0380056832080919 1 2 13.079878586755024 7.4568845167022459 2 26.878654216107172 1 2 48.41896576169362 1 2 52.158459336289091 5.9299685806074667 2 74.734395299068836 5.758114209693785 2 83.322471407142729 5.512411651527958 2 92.107198335086295 5.5850427178153339 2 1 4.3685172654278146 2 8.1157651034285738 1.8209283056180994 2 29.211160594236819 3.3228619144232425 2 44.400766230579954 6.850389728594406 2 53.012824870579806 4.0041499211847897 2 75.667387436746466 1 2 84.774157512629159 5.6057721099042288 2 93.789166306049154 1.9663463758458311 2 1 1 2 12.211169526013206 4.805855532585821 2 25.038455687358258 4.9787665368097578 2 48.691188190492646 5.3645857945718856 2 51.31802591144902 3.9321578749570083 2 75.056175728688601 2.7419883347984686 2 83.677993112683964 1 2 94.703458768659644 4.4467566998566239 2 2.7356833977414388 8.1514525449000743 2 12.03006268290086 1 2 27.311433540108883 3.6143322476553776 2 46.24344185588329 6.4807079517491681 2 50.252861862973504 8.9186896071417205 2 78.419446743738661 3.7982375597795888 2 84.333580311757885 6.6986782699073064 2 97.045015717127782 1 2 4.5667191290761968 2.6308109105623512 2 10.455180761895816 5.663107073048816 2 24.554311837679972 1 2 51.296932464482666 1.9720555390450261 2 50.640647346982512 2.8009053470966121 2 76.728976516260587 7.2560339137777579 2 84.995463825095911 3.7572467897977617 2 91.428359472293451 3.042785412971496 2 1.6944506088316598 7.2247621479009778 2 9.2031822878273548 1.8885821069969024 2 29.280277141036613 2.1032082843071591 2 41.475287289927266 6.6208212086321288 2 56.060179250421314 7.6304315913831964 2 77.451232845890544 1.9197882321278725 2 87.855765002384246 4.7906862495429774 2 94.763369413600728 1 2 1 2.812680473425563 2 12.176621122067381 3.6544402984309388 2 28.307180375190356 6.7322518570316845 2 46.537667177469267 4.6608463447965409 2 52.823961405635451 1.7908143916937529 2 74.557515637632349 1 2 84.908225500012719 1 2 91.324020818220603 1.7168701262594463 2 3.0558907124069368 4.1365440992058478 2 12.570922710528537 1 2 28.472194428779527 2.5186957873518709 2 47.246939771816585 7.918469590248236 2 53.371364623090514 7.3139133180523199 2 76.801493859727159 2.7636069249113699 2 85.260793757763508 8.3692355074868257 2 97.214815818747368 2.2913657896273558 2 3.7173528539888521 2.2581660704862405 2 10.034465692699953 8.1750765060328767 2 26.881170775849473 2.2969120154467348 2 48.980290464536104 1 2 50.742010789008368 4.6259591980103831 2 75.38293948038914 4.2997137649052339 2 82.934655903267441 4.335058375433487 2 90.784096710236142 5.7144806791597667 2 2.7376309385337319 5.9148818766362821 2 9.4580067888586576 2.9591419348235299 2 30.805638081374898 4.2829255339270853 2 43.198754838227686 7.4420509707866493 2 54.262410152009963 5.3230040211437464 2 76.395658202012868 1.8271815276480781 2 85.496427140871006 4.7064331029052511 2 92.670957677499715 2.1340531583244182 2 1.8841673554274403 1 2 11.327076434796988 5.0166796322210674 2 27.123501218347577 5.4181199887587876 2 49.239953077381841 3.7736184336996255 2 52.541880158783599 3.1625639693992551 2 73.831797749694701 4.0747293057224843 2 81.529347052786349 1.9674622752864435 2 94.514724848308532 2.7880770468588665 2 5.3276783041423146 7.2442506534470805 2 9.8437949723451421 1 2 27.405061649844964 1 2 45.767250621417901 8.8811566602024534 2 50.964804477696987 6.2190986520602483 2 78.509859590550903 1.8959356751277361 2 83.229767071434594 8.1553191335028963 2 95.311913979142361 1 2 4.8466392066668753 3.8751168095723032 2 12.240514798969762 6.2718583481096317 2 26.328370817983824 1 2 50.104883692390104 1 2 50.229365878743238 1.9179384485316684 2 75.660283339830187 5.7476684586281843 2 83.267081929267732 2.8978249178016742 2 92.41926216762181 1 2 1 5.3770083238918049 2 9.2707314644243493 1 2 30.589927162682752 2.2726223916280981 2 41.387214596776602 9.1102107708986395 2 55.039852206587319 8.7373649260927468 2 76.233489609449492 1 2 86.143327274231481 6.3295773981928614 2 95.892357092256731 1 2 2.8742628814196349 2.2814930739769927 2 11.774669258678998 2.7338032557032981 2 28.645516123709086 4.2520586203928206 2 47.270397037625159 6.3611211767913121 2 52.515301840772906 1 2 75.08616439534967 1 2 83.936498018777016 2.6830887941863253 2 90.731327031800262 2.3745708412969102 2 3.4503258207840295 6.7523060164148356 2 12.892405655929212 2.541029030253442 2 28.784229352261924 1 2 49.724919414117736 6.1741512276716337 2 51.234939785725814 7.3517609095678198 2 76.638307330050722 6.0288269960721736 2 87.970708550745385 6.4682135441133921 2 95.704353280578189 2.8709031392078375 2 3.6203083963628502 1 2 13.351104355944928 8.8801560794185939 2 27.995310712662111 1 2 47.767017631050635 1 2 52.935229966748643 5.9129186988716818 2 74.093313420014013 6.7534441565165642 2 82.366699724437453 5.2530096899344656 2 92.049822441306418 3.6579763529682552 2 2.7171505110376293 3.2098319667578754 2 8.6115850802238292 1 2 30.246142083398794 3.3700107279415819 2 45.111113637221479 5.9289152412330495 2 54.413024400230199 3.604743613396201 2 74.534885737550781 2.0255053753577488 2 84.348905254038584 4.6649951557166043 2 93.629006879607573 1 2 1.9906115666679287 2.8887730221239361 2 13.073884630280107 5.3187930168379332 2 25.164515599813225 6.0142371584753489 2 48.0429858825268 4.6597399782134028 2 52.184680825615743 4.2407370330479051 2 74.654445800173391 3.7487742044763621 2 82.805958928356588 2.2401181761108391 2 93.845457301383263 4.4146995910922726 2 4.3304927134779403 8.2502132530989662 2 10.425129345996165 1 2 26.981370116484413 4.3751251584517279 2 45.66231529878106 7.4845822765265027 2 49.880435190525375 7.3876744718184 2 77.242460566248909 3.5291004701662754 2 85.480254977847778 7.1461271669221142 2 96.719141601505854 2.8801982666316372 2 3.8515736423835865 3.1745923947689043 2 9.8472587468831101 6.5364672922422269 2 26.311999743250848 2.6458586167003495 2 51.393074101719343 2.9737815988428875 2 49.952063762326446 4.2009140176553643 2 77.834826014409046 7.7991942060486172 2 84.763164530035468 2.8876248161893301 2 92.474881252538367 4.5108541511027909 2 1 6.5095452400215015 2 7.9121700480396946 1 2 29.889277978201818 2.5613110081169768 2 41.131184016504079 5.8188689215181819 2 54.893184405861923 7.0453974601287301 2 77.747544625521698 2.6696994342583058 2 87.350502112872391 5.7806914507746585 2 92.998828091822858 1 2 1 2.0481783721905074 2 12.292160344067595 2.1557092445732007 2 28.8947558419739 5.7087911944215302 2 45.268594331546886 3.5000865844474975 2 51.337618213479324 1 2 75.730539155853606 2.345282678545384 2 84.107146709476567 1.9336562615135033 2 91.130974849356164 1 2 2.2457896080861515 4.2800090030391065 2 11.475214401387863 1 2 28.175689416793755 3.3960027369918557 2 48.622775266225119 8.1377318244153045 2 54.046153822772673 6.3019377071696407 2 76.022759214120939 3.1780642225439899 2 86.663708811350247 9.3608310568348418 2 96.050421413297983 2.1078493583858426 2 2.5072550024776796 1 2 11.65302435756082 8.1410637493140339 2 25.697743684361811 2.014839205610107 2 48.722521677473885 2.8247137261468027 2 49.743163550399629 5.1855042792930108 2 76.08098528056307 4.2043170135089323 2 83.79457814534554 3.9866065863227114 2 90.174168138307252 6.331386720959963 2 2.0826715943706624 5.2901739228113343 2 8.5219536459287522 2.6182986705601503 2 31.27676126177392 2.9425041864678105 2 42.041224692222578 7.7475589008691621 2 53.180182037484713 4.7914680550126718 2 77.540101675288099 1 2 86.291047658947107 4.2492852339319809 2 93.223928443143166 2.6797337714495391 2 1.9061824315256299 2.0249854135831815 2 11.18799475095282 3.6575133950643441 2 26.220445706964547 3.733265884796336 2 49.932556205511794 3.0885868069411804 2 52.040976140018714 2.4182884178723025 2 74.165362760530456 2.7644652253749351 2 81.120082934525954 2.6571014789898935 2 94.212055287568049 1 2 4.7547386428026774 6.3421757158474197 2 11.060449044666388 2.1783317580728467 2 27.547745147019846 2.5139016071482208 2 44.085559358042545 8.5664299340000145 2 51.443401610069131 5.2494289339558753 2 78.534630336199257 2.9092181964106274 2 83.122075678809139 6.6327082425108905 2 96.432678683500058 1 2 3.8678363167737522 4.2811875028489608 2 11.287702953177066 6.6748624669868413 2 25.426409123759004 3.0293815739238728 2 49.536486084766601 1 2 50.752315595434261 1 2 76.730251013260599 5.0267739325204062 2 82.567711757368443 3.4344294614898265 2 92.043781323921067 2.5388056682519924 2 1 3.6284588081567679 2 10.045031832396797 2.3030142093522219 2 30.526584141053718 1 2 39.68601519228956 8.6892905474140338 2 53.351442736325602 8.9270777525629779 2 76.913664154657525 1 2 86.449994414883122 5.2449842990195421 2 95.013633674279362 2.2672394421252631 2 </DataArray>
</Points>
<Cells>
<DataArray Name="connectivity" format="ascii" type="Int32">0</DataArray>
<DataArray Name="offsets" format="ascii" type="Int32">0</DataArray>
<DataArray Name="types" format="ascii" type="UInt8">1</DataArray>
</Cells>
<PointData>
<DataArray Name="Points" NumberOfComponents="3" format="ascii" type="Float32">1 1 2 10.948132975482475 1 2 28.137122639140077 5.0630763006203487 2 47.275343248705141 5.3416209898186553 2 51.906667373020298 1 2 73.981781653820804 1 2 84.287854535231943 1 2 91.845455102560308 1 2 3.8392763045973823 5.4325823088765315 2 13.084869315805729 1 2 28.283044017377964 1.6024520198883214 2 48.441174695553705 6.5930265999643272 2 52.196044748802812 7.7476961030723928 2 77.310968701355293 4.4097644475926279 2 87.137593907355509 7.7465861976218848 2 95.440880873036605 3.7517130139116333 2 3.0380056832080919 1 2 13.079878586755024 7.4568845167022459 2 26.878654216107172 1 2 48.41896576169362 1 2 52.158459336289091 5.9299685806074667 2 74.734395299068836 5.758114209693785 2 83.322471407142729 5.512411651527958 2 92.107198335086295 5.5850427178153339 2 1 4.3685172654278146 2 8.1157651034285738 1.8209283056180994 2 29.211160594236819 3.3228619144232425 2 44.400766230579954 6.850389728594406 2 53.012824870579806 4.0041499211847897 2 75.667387436746466 1 2 84.774157512629159 5.6057721099042288 2 93.789166306049154 1.9663463758458311 2 1 1 2 12.211169526013206 4.805855532585821 2 25.038455687358258 4.9787665368097578 2 48.691188190492646 5.3645857945718856 2 51.31802591144902 3.9321578749570083 2 75.056175728688601 2.7419883347984686 2 83.677993112683964 1 2 94.703458768659644 4.4467566998566239 2 2.7356833977414388 8.1514525449000743 2 12.03006268290086 1 2 27.311433540108883 3.6143322476553776 2 46.24344185588329 6.4807079517491681 2 50.252861862973504 8.9186896071417205 2 78.419446743738661 3.7982375597795888 2 84.333580311757885 6.6986782699073064 2 97.045015717127782 1 2 4.5667191290761968 2.6308109105623512 2 10.455180761895816 5.663107073048816 2 24.554311837679972 1 2 51.296932464482666 1.9720555390450261 2 50.640647346982512 2.8009053470966121 2 76.728976516260587 7.2560339137777579 2 84.995463825095911 3.7572467897977617 2 91.428359472293451 3.042785412971496 2 1.6944506088316598 7.2247621479009778 2 9.2031822878273548 1.8885821069969024 2 29.280277141036613 2.1032082843071591 2 41.475287289927266 6.6208212086321288 2 56.060179250421314 7.6304315913831964 2 77.451232845890544 1.9197882321278725 2 87.855765002384246 4.7906862495429774 2 94.763369413600728 1 2 1 2.812680473425563 2 12.176621122067381 3.6544402984309388 2 28.307180375190356 6.7322518570316845 2 46.537667177469267 4.6608463447965409 2 52.823961405635451 1.7908143916937529 2 74.557515637632349 1 2 84.908225500012719 1 2 91.324020818220603 1.7168701262594463 2 3.0558907124069368 4.1365440992058478 2 12.570922710528537 1 2 28.472194428779527 2.5186957873518709 2 47.246939771816585 7.918469590248236 2 53.371364623090514 7.3139133180523199 2 76.801493859727159 2.7636069249113699 2 85.260793757763508 8.3692355074868257 2 97.214815818747368 2.2913657896273558 2 3.7173528539888521 2.2581660704862405 2 10.034465692699953 8.1750765060328767 2 26.881170775849473 2.2969120154467348 2 48.980290464536104 1 2 50.742010789008368 4.6259591980103831 2 75.38293948038914 4.2997137649052339 2 82.934655903267441 4.335058375433487 2 90.784096710236142 5.7144806791597667 2 2.7376309385337319 5.9148818766362821 2 9.4580067888586576 2.9591419348235299 2 30.805638081374898 4.2829255339270853 2 43.198754838227686 7.4420509707866493 2 54.262410152009963 5.3230040211437464 2 76.395658202012868 1.8271815276480781 2 85.496427140871006 4.7064331029052511 2 92.670957677499715 2.1340531583244182 2 1.8841673554274403 1 2 11.327076434796988 5.0166796322210674 2 27.123501218347577 5.4181199887587876 2 49.239953077381841 3.7736184336996255 2 52.541880158783599 3.1625639693992551 2 73.831797749694701 4.0747293057224843 2 81.529347052786349 1.9674622752864435 2 94.514724848308532 2.7880770468588665 2 5.3276783041423146 7.2442506534470805 2 9.8437949723451421 1 2 27.405061649844964 1 2 45.767250621417901 8.8811566602024534 2 50.964804477696987 6.2190986520602483 2 78.509859590550903 1.8959356751277361 2 83.229767071434594 8.1553191335028963 2 95.311913979142361 1 2 4.8466392066668753 3.8751168095723032 2 12.240514798969762 6.2718583481096317 2 26.328370817983824 1 2 50.104883692390104 1 2 50.229365878743238 1.9179384485316684 2 75.660283339830187 5.7476684586281843 2 83.267081929267732 2.8978249178016742 2 92.41926216762181 1 2 1 5.3770083238918049 2 9.2707314644243493 1 2 30.589927162682752 2.2726223916280981 2 41.387214596776602 9.1102107708986395 2 55.039852206587319 8.7373649260927468 2 76.233489609449492 1 2 86.143327274231481 6.3295773981928614 2 95.892357092256731 1 2 2.8742628814196349 2.2814930739769927 2 11.774669258678998 2.7338032557032981 2 28.645516123709086 4.2520586203928206 2 47.270397037625159 6.3611211767913121 2 52.515301840772906 1 2 75.08616439534967 1 2 83.936498018777016 2.6830887941863253 2 90.731327031800262 2.3745708412969102 2 3.4503258207840295 6.7523060164148356 2 12.892405655929212 2.541029030253442 2 28.784229352261924 1 2 49.724919414117736 6.1741512276716337 2 51.234939785725814 7.3517609095678198 2 76.638307330050722 6.0288269960721736 2 87.970708550745385 6.4682135441133921 2 95.704353280578189 2.8709031392078375 2 3.6203083963628502 1 2 13.351104355944928 8.8801560794185939 2 27.995310712662111 1 2 47.767017631050635 1 2 52.935229966748643 5.9129186988716818 2 74.093313420014013 6.7534441565165642 2 82.366699724437453 5.2530096899344656 2 92.049822441306418 3.6579763529682552 2 2.7171505110376293 3.2098319667578754 2 8.6115850802238292 1 2 30.246142083398794 3.3700107279415819 2 45.111113637221479 5.9289152412330495 2 54.413024400230199 3.604743613396201 2 74.534885737550781 2.0255053753577488 2 84.348905254038584 4.6649951557166043 2 93.629006879607573 1 2 1.9906115666679287 2.8887730221239361 2 13.073884630280107 5.3187930168379332 2 25.164515599813225 6.0142371584753489 2 48.0429858825268 4.6597399782134028 2 52.184680825615743 4.2407370330479051 2 74.654445800173391 3.7487742044763621 2 82.805958928356588 2.2401181761108391 2 93.845457301383263 4.4146995910922726 2 4.3304927134779403 8.2502132530989662 2 10.425129345996165 1 2 26.981370116484413 4.3751251584517279 2 45.66231529878106 7.4845822765265027 2 49.880435190525375 7.3876744718184 2 77.242460566248909 3.5291004701662754 2 85.480254977847778 7.1461271669221142 2 96.719141601505854 2.8801982666316372 2 3.8515736423835865 3.1745923947689043 2 9.8472587468831101 6.5364672922422269 2 26.311999743250848 2.6458586167003495 2 51.393074101719343 2.9737815988428875 2 49.952063762326446 4.2009140176553643 2 77.834826014409046 7.7991942060486172 2 84.763164530035468 2.8876248161893301 2 92.474881252538367 4.5108541511027909 2 1 6.5095452400215015 2 7.9121700480396946 1 2 29.889277978201818 2.5613110081169768 2 41.131184016504079 5.8188689215181819 2 54.893184405861923 7.0453974601287301 2 77.747544625521698 2.6696994342583058 2 87.350502112872391 5.7806914507746585 2 92.998828091822858 1 2 1 2.0481783721905074 2 12.292160344067595 2.1557092445732007 2 28.8947558419739 5.7087911944215302 2 45.268594331546886 3.5000865844474975 2 51.337618213479324 1 2 75.730539155853606 2.345282678545384 2 84.107146709476567 1.9336562615135033 2 91.130974849356164 1 2 2.2457896080861515 4.2800090030391065 2 11.475214401387863 1 2 28.175689416793755 3.3960027369918557 2 48.622775266225119 8.1377318244153045 2 54.046153822772673 6.3019377071696407 2 76.022759214120939 3.1780642225439899 2 86.663708811350247 9.3608310568348418 2 96.050421413297983 2.1078493583858426 2 2.5072550024776796 1 2 11.65302435756082 8.1410637493140339 2 25.697743684361811 2.014839205610107 2 48.722521677473885 2.8247137261468027 2 49.743163550399629 5.1855042792930108 2 76.08098528056307 4.2043170135089323 2 83.79457814534554 3.9866065863227114 2 90.174168138307252 6.331386720959963 2 2.0826715943706624 5.2901739228113343 2 8.5219536459287522 2.6182986705601503 2 31.27676126177392 2.9425041864678105 2 42.041224692222578 7.7475589008691621 2 53.180182037484713 4.7914680550126718 2 77.540101675288099 1 2 86.291047658947107 4.2492852339319809 2 93.223928443143166 2.6797337714495391 2 1.9061824315256299 2.0249854135831815 2 11.18799475095282 3.6575133950643441 2 26.220445706964547 3.733265884796336 2 49.932556205511794 3.0885868069411804 2 52.040976140018714 2.4182884178723025 2 74.165362760530456 2.7644652253749351 2 81.120082934525954 2.6571014789898935 2 94.212055287568049 1 2 4.7547386428026774 6.3421757158474197 2 11.060449044666388 2.1783317580728467 2 27.547745147019846 2.5139016071482208 2 44.085559358042545 8.5664299340000145 2 51.443401610069131 5.2494289339558753 2 78.534630336199257 2.9092181964106274 2 83.122075678809139 6.6327082425108905 2 96.432678683500058 1 2 3.8678363167737522 4.2811875028489608 2 11.287702953177066 6.6748624669868413 2 25.426409123759004 3.0293815739238728 2 49.536486084766601 1 2 50.752315595434261 1 2 76.730251013260599 5.0267739325204062 2 82.567711757368443 3.4344294614898265 2 92.043781323921067 2.5388056682519924 2 1 3.6284588081567679 2 10.045031832396797 2.3030142093522219 2 30.526584141053718 1 2 39.68601519228956 8.6892905474140338 2 53.351442736325602 8.9270777525629779 2 76.913664154657525 1 2 86.449994414883122 5.2449842990195421 2 95.013633674279362 2.2672394421252631 2 </DataArray>