<?xml version="1.0" ?>
<VTKFile byte_order="LittleEndian" type="UnstructuredGrid" version="0.1">
<UnstructuredGrid>
<Piece NumberOfCells="0" NumberOfPoints="177">
<Points>
<DataArray NumberOfComponents="3" format="ascii" type="Float32">0 0 0 7.3181847007058316 1.4 2 18.450418355367926 4.6174233891410363 2 33.683710381984362 5.9425569543980581 2 42.928513715377242 6.0972533071287538 2 42.571947045647775 1.4 2 54.040669567589333 3.2659511383156508 2 59.078532076415442 1.4 2 71.58055699782966 1.4 2 72.820510745828003 2.8553466328299293 2 78.84067000242996 1.4 2 95.573885095452439 5.0248063038072157 2 7.4410982252456686 9.1758437861908853 2 13.995757451709292 1.4 2 31.623424483598917 1.4 2 41.535060621479893 1.4 2 46.401904451515655 3.2418128444156324 2 58.262068120628001 1.4 2 58.59434831774243 9.1663551961917769 2 70.383225223120832 5.8360407579955647 2 73.056406106696713 4.3233081777239475 2 78.658401977043738 7.8835274003020119 2 98.6 1.4 2 6.8106449121590469 3.7176400330470392 2 13.978593775813458 5.326347847048698 2 30.020737189953369 6.8172052353478279 2 39.538454904700608 6.4867985181900494 2 45.211935966015311 2.9699030853993245 2 56.535519756497756 1.4 2 58.621223121575539 5.1549690952941445 2 69.151657847618694 1.4 2 70.85662002069067 4.0056589541683971 2 80.604741323666417 1.4 2 95.747829371232925 9.0561223455758242 2 9.4628117271762182 4.3634710041521148 2 14.812257282438436 4.1082204670110416 2 33.411724248950193 3.2621438414562109 2 38.891022718379169 1.4 2 47.290197057909275 1.4 2 55.025526905032272 4.0716500393339361 2 62.328139888636578 9.2479679567103297 2 66.355337027336432 4.9160859181242023 2 71.642361901034661 7.2763127025136205 2 80.954852027862785 4.3316121002010224 2 98.6 4.7457129131850344 2 5.2310531766024599 1.4 2 17.346508234986242 7.3685847250287031 2 31.778726063991328 6.4014686205650513 2 40.424209097125591 4.737321359123122 2 43.020014688574186 2.5620599415065346 2 53.193684701621805 1.4 2 61.071919152527457 3.4277725704856574 2 70.16440214977284 1.4 2 73.392298667290717 1.4 2 80.383132526133352 3.0649447190895933 2 93.706311128563044 6.0343840055543332 2 5.451143230121275 5.380563162904779 2 13.514933289538597 3.5839511579285501 2 31.315693581071944 2.7757459087994678 2 40.467394553122936 3.2072889202563837 2 44.186182106407585 4.6118833408765676 2 56.714873151889407 3.1846336541413063 2 60.833803746601383 6.0077846121077645 2 67.770569884601713 8.0459584740529131 2 73.379875750027807 8.2505892995745764 2 77.89564445317302 5.7949988859497763 2 98.6 2.1295441488994524 2 5.6549963862829582 3.3557965890257497 2 15.586560415979843 7.8031615496085065 2 31.557318632343108 8.7179852517135341 2 37.943690425945363 3.9031009386122597 2 44.50085157980282 1.4 2 55.723880443588833 1.4 2 59.556221259728972 3.2723568320623349 2 67.697256604381352 2.5002644059663153 2 68.001954461245532 3.7474550145830605 2 81.782070889795918 3.3311176418270132 2 91.91685746836859 7.5685498098221373 2 8.5352970730032105 5.5248951117263179 2 17.307695799162623 3.5488798091296108 2 33.274585126520869 1.4 2 39.257537129860928 3.3385615416287022 2 48.504225724543261 2.8835904814294699 2 57.232619581953706 5.7163698622670429 2 62.451431980489396 6.9695842777234835 2 65.525138634073613 7.2030705317509742 2 71.174255597395288 9.5889710623783575 2 81.016163652071583 7.808716802277921 2 98.6 6.4424018134304077 2 6.2096714379131805 1.4 2 18.256890990113359 2.7975148473891109 2 32.003980594566535 5.0090399625039908 2 41.776038898820644 3.7611082484008964 2 43.553196151955014 1.4 2 55.270324095413912 2.8496885164124763 2 60.645647365454607 1.4 2 70.91667800946388 1.5659046304694297 2 71.84325240018714 3.3701272804298785 2 79.776542344691151 1.4 2 97.049276071431805 5.7251272186793241 2 8.8117305382033884 7.3111823836322687 2 15.145383428584617 1.4 2 32.441456934392484 1.4 2 40.592718950418345 1.4 2 47.228044599990646 2.0941934994219502 2 59.810190696551949 1.4 2 57.378523577544442 7.5370743534142459 2 68.771599009229718 6.2471431983819636 2 71.777416186294019 5.3060150884092128 2 79.759910010239153 9.7483539728101469 2 97.784072917542645 1.4 2 6.9821105236950487 5.3582863664662623 2 14.195959750551204 6.7479938387530636 2 29.320460021753114 8.9183095484796873 2 39.056789054532111 8.2401862116153382 2 44.103164357020638 3.2005582411843232 2 57.351792057364456 1.4 2 59.211473873166184 6.649687647412617 2 68.110085647582636 1.4 2 70.061747917031312 3.2262745416821534 2 82.111713986997188 1.4 2 95.520201725326544 6.7534290019074232 2 10.588515239370023 3.5891656157067819 2 15.941934233026654 5.7152565594081928 2 32.299182721459559 3.4382262503385874 2 39.755079270791555 1.4 2 46.194536765985376 1.4 2 56.437605543686971 4.3615536452271879 2 64.340914718526179 8.537356592109445 2 68.102381529442226 4.9907080335002796 2 73.17301419723313 5.9747129718178629 2 81.415634953104245 5.8878521122252918 2 97.443566624513807 3.9458439490363895 2 6.720154492292159 2.2476677362092157 2 17.067474914668082 5.1078313146671634 2 30.006267156099678 5.1729693054365047 2 41.516660337415509 5.5292033338894333 2 42.917426599817567 4.3134419177878236 2 54.857829470521125 1.4 2 61.110864792477095 2.2075767891035536 2 69.117796377383939 2.306896438162743 2 72.446612619779785 1.4 2 79.097292952902748 2.9333378454374235 2 93.171432760637643 4.0842853037411553 2 6.7670038816828626 7.0602694277970022 2 13.884252652880811 2.0231161240141895 2 29.976604847346998 2.5020345467507488 2 41.52770578040397 2.4538538493050206 2 45.258781610744414 5.4083162671958389 2 58.139944991300816 3.7744633403063705 2 60.531448485071884 8.0890762351359005 2 66.478106829559295 9.6242467468396224 2 75.393844686082318 8.6489746673880212 2 79.520988798001582 4.6799036961991023 2 98.6 3.4288042893072164 2 4.7151874033798133 1.4777817149311032 2 15.645540597239167 9.860594622704447 2 33.311267853519922 7.7580810160864546 2 38.990268929320948 4.8636320835533837 2 45.305902900720262 1.4 2 54.040249807845399 1.4 2 58.011983456424403 2.6917191529034046 2 66.689960224665626 3.3420007817289443 2 69.415468151835867 4.2652149271042816 2 82.852335165239992 1.4 2 93.678002514129602 8.2208689114901521 2 7.9963374405883281 3.6017582240355912 2 15.995708207762709 3.7051808432543241 2 34.138106775273229 1.4 2 38.442439388210296 2.3696231011227034 2 47.635380322646839 4.0704160324490166 2 55.585805735599799 5.7171812521796319 2 63.925842932718943 6.1678571606595902 2 66.743490399232186 6.2678938972027707 2 69.698106750107939 7.9548048918122793 2 79.59766989124887 6.2473416950749669 2 97.732509237838698 8.0374926577355019 2 </DataArray>
</Points>
<Cells>
<DataArray Name="connectivity" format="ascii" type="Int32">0</DataArray>
<DataArray Name="offsets" format="ascii" type="Int32">0</DataArray>
<DataArray Name="types" format="ascii" type="UInt8">1</DataArray>
</Cells>
<PointData>
<DataArray Name="Points" NumberOfComponents="3" format="ascii" type="Float32">0 0 0 7.3181847007058316 1.4 2 18.450418355367926 4.6174233891410363 2 33.683710381984362 5.9425569543980581 2 42.928513715377242 6.0972533071287538 2 42.571947045647775 1.4 2 54.040669567589333 3.2659511383156508 2 59.078532076415442 1.4 2 71.58055699782966 1.4 2 72.820510745828003 2.8553466328299293 2 78.84067000242996 1.4 2 95.573885095452439 5.0248063038072157 2 7.4410982252456686 9.1758437861908853 2 13.995757451709292 1.4 2 31.623424483598917 1.4 2 41.535060621479893 1.4 2 46.401904451515655 3.2418128444156324 2 58.262068120628001 1.4 2 58.59434831774243 9.1663551961917769 2 70.383225223120832 5.8360407579955647 2 73.056406106696713 4.3233081777239475 2 78.658401977043738 7.8835274003020119 2 98.6 1.4 2 6.8106449121590469 3.7176400330470392 2 13.978593775813458 5.326347847048698 2 30.020737189953369 6.8172052353478279 2 39.538454904700608 6.4867985181900494 2 45.211935966015311 2.9699030853993245 2 56.535519756497756 1.4 2 58.621223121575539 5.1549690952941445 2 69.151657847618694 1.4 2 70.85662002069067 4.0056589541683971 2 80.604741323666417 1.4 2 95.747829371232925 9.0561223455758242 2 9.4628117271762182 4.3634710041521148 2 14.812257282438436 4.1082204670110416 2 33.411724248950193 3.2621438414562109 2 38.891022718379169 1.4 2 47.290197057909275 1.4 2 55.025526905032272 4.0716500393339361 2 62.328139888636578 9.2479679567103297 2 66.355337027336432 4.9160859181242023 2 71.642361901034661 7.2763127025136205 2 80.954852027862785 4.3316121002010224 2 98.6 4.7457129131850344 2 5.2310531766024599 1.4 2 17.346508234986242 7.3685847250287031 2 31.778726063991328 6.4014686205650513 2 40.424209097125591 4.737321359123122 2 43.020014688574186 2.5620599415065346 2 53.193684701621805 1.4 2 61.071919152527457 3.4277725704856574 2 70.16440214977284 1.4 2 73.392298667290717 1.4 2 80.383132526133352 3.0649447190895933 2 93.706311128563044 6.0343840055543332 2 5.451143230121275 5.380563162904779 2 13.514933289538597 3.5839511579285501 2 31.315693581071944 2.7757459087994678 2 40.467394553122936 3.2072889202563837 2 44.186182106407585 4.6118833408765676 2 56.714873151889407 3.1846336541413063 2 60.833803746601383 6.0077846121077645 2 67.770569884601713 8.0459584740529131 2 73.379875750027807 8.2505892995745764 2 77.89564445317302 5.7949988859497763 2 98.6 2.1295441488994524 2 5.6549963862829582 3.3557965890257497 2 15.586560415979843 7.8031615496085065 2 31.557318632343108 8.7179852517135341 2 37.943690425945363 3.9031009386122597 2 44.50085157980282 1.4 2 55.723880443588833 1.4 2 59.556221259728972 3.2723568320623349 2 67.697256604381352 2.5002644059663153 2 68.001954461245532 3.7474550145830605 2 81.782070889795918 3.3311176418270132 2 91.91685746836859 7.5685498098221373 2 8.5352970730032105 5.5248951117263179 2 17.307695799162623 3.5488798091296108 2 33.274585126520869 1.4 2 39.257537129860928 3.3385615416287022 2 48.504225724543261 2.8835904814294699 2 57.232619581953706 5.7163698622670429 2 62.451431980489396 6.9695842777234835 2 65.525138634073613 7.2030705317509742 2 71.174255597395288 9.5889710623783575 2 81.016163652071583 7.808716802277921 2 98.6 6.4424018134304077 2 6.2096714379131805 1.4 2 18.256890990113359 2.7975148473891109 2 32.003980594566535 5.0090399625039908 2 41.776038898820644 3.7611082484008964 2 43.553196151955014 1.4 2 55.270324095413912 2.8496885164124763 2 60.645647365454607 1.4 2 70.91667800946388 1.5659046304694297 2 71.84325240018714 3.3701272804298785 2 79.776542344691151 1.4 2 97.049276071431805 5.7251272186793241 2 8.8117305382033884 7.3111823836322687 2 15.145383428584617 1.4 2 32.441456934392484 1.4 2 40.592718950418345 1.4 2 47.228044599990646 2.0941934994219502 2 59.810190696551949 1.4 2 57.378523577544442 7.5370743534142459 2 68.771599009229718 6.2471431983819636 2 71.777416186294019 5.3060150884092128 2 79.759910010239153 9.7483539728101469 2 97.784072917542645 1.4 2 6.9821105236950487 5.3582863664662623 2 14.195959750551204 6.7479938387530636 2 29.320460021753114 8.9183095484796873 2 39.056789054532111 8.2401862116153382 2 44.103164357020638 3.2005582411843232 2 57.351792057364456 1.4 2 59.211473873166184 6.649687647412617 2 68.110085647582636 1.4 2 70.061747917031312 3.2262745416821534 2 82.111713986997188 1.4 2 95.520201725326544 6.7534290019074232 2 10.588515239370023 3.5891656157067819 2 15.941934233026654 5.7152565594081928 2 32.299182721459559 3.4382262503385874 2 39.755079270791555 1.4 2 46.194536765985376 1.4 2 56.437605543686971 4.3615536452271879 2 64.340914718526179 8.537356592109445 2 68.102381529442226 4.9907080335002796 2 73.17301419723313 5.9747129718178629 2 81.415634953104245 5.8878521122252918 2 97.443566624513807 3.9458439490363895 2 6.720154492292159 2.2476677362092157 2 17.067474914668082 5.1078313146671634 2 30.006267156099678 5.1729693054365047 2 41.516660337415509 5.5292033338894333 2 42.917426599817567 4.3134419177878236 2 54.857829470521125 1.4 2 61.110864792477095 2.2075767891035536 2 69.117796377383939 2.306896438162743 2 72.446612619779785 1.4 2 79.097292952902748 2.9333378454374235 2 93.171432760637643 4.0842853037411553 2 6.7670038816828626 7.0602694277970022 2 13.884252652880811 2.0231161240141895 2 29.976604847346998 2.5020345467507488 2 41.52770578040397 2.4538538493050206 2 45.258781610744414 5.4083162671958389 2 58.139944991300816 3.7744633403063705 2 60.531448485071884 8.0890762351359005 2 66.478106829559295 9.6242467468396224 2 75.393844686082318 8.6489746673880212 2 79.520988798001582 4.6799036961991023 2 98.6 3.4288042893072164 2 4.7151874033798133 1.4777817149311032 2 15.645540597239167 9.860594622704447 2 33.311267853519922 7.7580810160864546 2 38.990268929320948 4.8636320835533837 2 45.305902900720262 1.4 2 54.040249807845399 1.4 2 58.011983456424403 2.6917191529034046 2 66.689960224665626 3.3420007817289443 2 69.415468151835867 4.2652149271042816 2 82.852335165239992 1.4 2 93.678002514129602 8.2208689114901521 2 7.9963374405883281 3.6017582240355912 2 15.995708207762709 3.7051808432543241 2 34.138106775273229 1.4 2 38.442439388210296 2.3696231011227034 2 47.635380322646839 4.0704160324490166 2 55.585805735599799 5.7171812521796319 2 63.925842932718943 6.1678571606595902 2 66.743490399232186 6.2678938972027707 2 69.698106750107939 7.9548048918122793 2 79.59766989124887 6.2473416950749669 2 97.732509237838698 8.0374926577355019 2 </DataArray>
<DataArray Name="forces" NumberOfComponents="3" format="ascii" type="Float32">0 0 0 -0.24996384376904929 -2.7526452773109988 0.0 0.02227562194684421 1.1029827465773947 0.0 0.077320724154163412 0.89465066190905451 0.0 -0.010827504538211574 1.0094229464444444 0.0 0.032604945837834132 -3.0289598805060525 0.0 -0.075121610698411431 1.1004948958615715 0.0 -0.091167072306116537 -2.1444327346795324 0.0 0.38524202174940481 -2.7158988988550021 0.0 -0.0095608836890680449 1.2902946557075614 0.0 -0.02145455174095251 -3.0017127472871925 0.0 -0.023986263575564496 1.1523914182113058 0.0 -0.092707796574130058 0.9582437476713358 0.0 0.32214359872311998 -3.8437612984277711 0.0 -0.11127859886547853 -2.6212368505809738 0.0 0.09580109504257639 -3.3340662602228202 0.0 0.0016875371491460456 1.1354209853822512 0.0 -0.14592798157280262 -2.6232863799053843 0.0 -0.10124590752166251 1.105563566800468 0.0 0.10610330152368588 0.96488673499736377 0.0 0.04974043902647951 0.91256258539933943 0.0 0.00063495369882754504 1.0230578410067337 0.0 3.3757271267789912 -3.1782907018265436 0.0 0.059890576301633303 1.0283440665131902 0.0 0.12584495100771975 0.96435368826253343 0.0 0.063353087627535373 0.93557075853638438 0.0 -0.058788470988268893 1.0043762258062672 0.0 0.047657812192238969 1.115258628917901 0.0 -0.055418283628251408 -2.2127482591865069 0.0 0.03215139020544755 1.08835978213218 0.0 -0.11323138095567603 -3.4581056042003242 0.0 -0.08894855315623329 0.97252547633536257 0.0 -0.38508428230449188 -2.5112054016443301 0.0 0.06513934740287497 0.95700798869134829 0.0 -0.19554716343259071 0.95479821415516541 0.0 -0.021302979613346096 0.96758368471021339 0.0 -0.027260183253010883 1.0167264537503402 0.0 -0.0028836681669297537 -2.9942550326685926 0.0 0.014276858226483427 -3.6666111467162983 0.0 -0.021337282838828853 0.80530252063999486 0.0 -0.098404687789507173 1.0988638750980817 0.0 -0.04285625171477242 0.98545114102447728 0.0 0.0064634941840008286 0.92858954924435144 0.0 0.096699684576343148 0.88764378708823166 0.0 2.0736304131485221 0.93793540355938232 0.0 0.90076531274873384 -2.7375241682914733 0.0 0.10849274357375094 1.1378772503606829 0.0 -0.050179114092734123 1.0467101254262698 0.0 -0.019879604225824909 1.1745490590589569 0.0 -0.00025891713542494643 1.1112434501292934 0.0 -0.097435303576551169 -2.9978197438805188 0.0 -0.24707219973543834 1.224086230174553 0.0 -0.28399645143937657 -2.7585796840792813 0.0 -0.046339149818617753 -3.1235768569509323 0.0 0.32821392542258598 1.1040562780932386 0.0 -0.057673673324338967 1.0385306120780753 0.0 -0.030907609731264274 0.99548078219792313 0.0 -0.23673509935234333 1.0439615410859258 0.0 0.091887149361298825 1.1116485980939639 0.0 0.0092883723485922554 1.1113397972276895 0.0 0.027471907320320899 1.0893633519562669 0.0 0.039844879734209582 1.0756578763283724 0.0 0.023438829027694119 1.0233046327084239 0.0 0.0024841083322224566 0.89005895932499246 0.0 -0.037597258536669842 1.0616727229986131 0.0 0.063471960970745256 1.0150588645860046 0.0 3.220142793166838 0.97056869225934816 0.0 -0.21129701601401862 1.0645831029454609 0.0 -0.076297200384564501 0.73266834136957049 0.0 0.028085255372393925 1.0821801044027557 0.0 -0.011901913724318702 0.90809826763251955 0.0 -0.014580800738952515 -2.5856777774885797 0.0 -0.035976269841322822 -2.2095388597554613 0.0 -0.14089768524009894 0.80395965558713733 0.0 -0.13755182735802768 1.1410340682140028 0.0 0.017271133922425852 1.0662192689978705 0.0 0.079753698032515974 0.66486208864132734 0.0 -0.063957487720071593 1.0222270813359888 0.0 0.0080683829465666435 0.92589489175060913 0.0 -0.018387755233826519 1.1474809819642968 0.0 -0.010262022649297986 -2.3979429475923513 0.0 0.018863279353234064 1.2138404434335628 0.0 0.095830438402777274 1.0036029783200819 0.0 -0.075261628457498286 0.92501750519076842 0.0 0.08143367829676007 1.0607914045008444 0.0 0.036717066509596608 1.0156629333924236 0.0 0.12868132347774436 0.98907522759715927 0.0 0.052159685990612936 0.84910087443136362 0.0 1.480407619300081 0.73150067613794278 0.0 0.0034720268873422722 -2.8638919366011826 0.0 -0.058627341847319769 1.0485495002945515 0.0 -0.11183106860857528 1.2008727969082076 0.0 0.0078980366314144734 1.1302787549556395 0.0 -0.0073588724282087625 -2.8548717161644146 0.0 0.041439777306354501 1.0662418981965769 0.0 0.043842979816211325 -3.0508488035160339 0.0 -0.16548748378992628 -0.95651811373576523 0.0 -0.19572055732808086 0.94913747576460328 0.0 -0.16136267874267585 -2.4425361481544758 0.0 -0.052317786414120389 1.123181562735728 0.0 0.013334442235375943 0.95812862338796823 0.0 0.061764258415846207 -3.1443131078562168 0.0 -0.10073362744686531 -2.4113572460445303 0.0 0.039370457350731469 -2.7561634408041717 0.0 -0.073408391302846043 0.90868588430254582 0.0 0.1662789046530514 -2.2450676399428908 0.0 0.095200493855769258 0.89750794994968452 0.0 0.13631607588203309 0.96003638731260288 0.0 0.081373840185372498 1.041927913765238 0.0 0.053844476749744685 0.95816822081985786 0.0 -0.10256420846538372 -2.9215147969032795 0.0 -0.0042356364244108824 0.91484116801174509 0.0 -0.10331607041240143 0.91575449651151575 0.0 -0.0085613757488098852 0.94773430084307142 0.0 -0.0026724218504988739 0.91607164840191946 0.0 0.041639326459538162 1.1453133782080409 0.0 -0.028331971374937703 -2.4864601314359902 0.0 0.043391071297142259 0.979116542167773 0.0 0.025312260399919934 -3.4276979180201299 0.0 0.32827250022911292 0.92736277793165001 0.0 0.05479868229367868 -1.9715626874898577 0.0 0.087181774249300986 1.1153789086901662 0.0 -0.26697554740292617 1.0005273561120314 0.0 0.075778970102788085 1.0257878543106906 0.0 0.10758492870884914 1.2115066990483081 0.0 0.0032928440717393537 -2.6372774127078666 0.0 -0.04706797501600124 -2.6661904235206841 0.0 -0.026310344108646078 1.0267422333795455 0.0 -0.072463316119298168 0.9638377057171017 0.0 0.049781390313651586 1.0956012794168299 0.0 0.044381756935436903 0.87238473308730236 0.0 0.095981610435853737 0.94250410717608712 0.0 0.037827765673887681 1.046522183115016 0.0 -0.048064342845073771 1.4931228086908428 0.0 -0.00081549690075266579 1.0642361608475956 0.0 -0.16362255076633461 0.90736545761762544 0.0 0.094038771617340117 0.96147702478595154 0.0 0.0513897202884189 0.90042096282514061 0.0 -0.049387311781074583 -2.3497295018345232 0.0 0.068823013821811274 1.3226160361728938 0.0 0.11246019564959037 1.2472551829540492 0.0 0.11253346645707218 -2.561736949427909 0.0 0.11194975520254427 1.2621322422622048 0.0 0.10455841913364772 0.9896273960343771 0.0 -0.013267009905998717 0.9007206905840579 0.0 -0.17326613693571458 1.0879842138582292 0.0 -0.10551133242930011 1.3375679138127792 0.0 -0.13943549989376819 1.1471475174565771 0.0 0.016830080200205766 1.0309167419322649 0.0 0.11358884303587674 1.0802688664732574 0.0 -0.073468065605470589 0.96030078560059873 0.0 -0.052511956960777095 0.95435532636658815 0.0 0.077621408086551935 1.0901765242592922 0.0 0.028773770385530313 1.0712598256424817 0.0 2.720333175487939 1.0312205851445251 0.0 -1.0829609776842437 -1.2651850344692621 0.0 0.11136958793913776 0.78336896398532196 0.0 -0.039851513380452008 0.86083324688791507 0.0 -0.021241866599159595 1.0493683295719849 0.0 -0.0291182535558967 -2.6781022666130498 0.0 -0.054341039049667694 -2.4287735976471283 0.0 0.17725312864892678 1.1611750341153875 0.0 -0.0069233165190124568 1.2999127504115171 0.0 -0.11594796019331843 0.93631056648054389 0.0 0.024911325326914757 -1.7959964262710812 0.0 -0.018780833055456192 0.99739083036411702 0.0 0.093933423371028404 0.74225963440592035 0.0 0.024111063262381272 1.0216028282425025 0.0 0.05341223790967442 -2.6839349736732276 0.0 0.11341847053643657 1.1046950309228929 0.0 0.0033608711685385873 0.89810996445663061 0.0 -0.041315583989810833 0.91674716780150234 0.0 0.082717986367826957 0.91240878000377745 0.0 -0.010232666172432348 0.86737213358232934 0.0 0.0012589491430333721 1.0567302586561875 0.0 -0.029784578683796949 0.95111225854536241 0.0 0.35516260644995279 1.1019024996380693 0.0 </DataArray>
<DataArray Name="radii" format="ascii" type="Float32">0 1.4 1.4 1.4 1.4 1.4 1.4 1.4 1.4 1.4 1.4 1.4 1.4 1.4 1.4 1.4 1.4 1.4 1.4 1.4 1.4 1.4 1.4 1.4 1.4 1.4 1.4 1.4 1.4 1.4 1.4 1.4 1.4 1.4 1.4 1.4 1.4 1.4 1.4 1.4 1.4 1.4 1.4 1.4 1.4 1.4 1.4 1.4 1.4 1.4 1.4 1.4 1.4 1.4 1.4 1.4 1.4 1.4 1.4 1.4 1.4 1.4 1.4 1.4 1.4 1.4 1.4 1.4 1.4 1.4 1.4 1.4 1.4 1.4 1.4 1.4 1.4 1.4 1.4 1.4 1.4 1.4 1.4 1.4 1.4 1.4 1.4 1.4 1.4 1.4 1.4 1.4 1.4 1.4 1.4 1.4 1.4 1.4 1.4 1.4 1.4 1.4 1.4 1.4 1.4 1.4 1.4 1.4 1.4 1.4 1.4 1.4 1.4 1.4 1.4 1.4 1.4 1.4 1.4 1.4 1.4 1.4 1.4 1.4 1.4 1.4 1.4 1.4 1.4 1.4 1.4 1.4 1.4 1.4 1.4 1.4 1.4 1.4 1.4 1.4 1.4 1.4 1.4 1.4 1.4 1.4 1.4 1.4 1.4 1.4 1.4 1.4 1.4 1.4 1.4 1.4 1.4 1.4 1.4 1.4 1.4 1.4 1.4 1.4 1.4 1.4 1.4 1.4 1.4 1.4 1.4 1.4 1.4 1.4 1.4 1.4 1.4 </DataArray>
</PointData>
<CellData/>
</Piece>
</UnstructuredGrid>
</VTKFile>
