<?xml version="1.0" ?>
<VTKFile byte_order="LittleEndian" type="UnstructuredGrid" version="0.1">
<UnstructuredGrid>
<Piece NumberOfCells="0" NumberOfPoints="80">
<Points>
<DataArray NumberOfComponents="3" format="ascii" type="Float32">20.23274828314316 1.4 2 25.661195337669351 4.0816095294824057 2 37.876288694993292 6.0303841499638562 2 64.978236460866583 1.4 2 89.946380966631423 8.5574443990899969 2 19.254515285578353 1.4 2 21.571797134681258 8.1637852884362285 2 34.985370050026788 8.8024505427926183 2 62.478885852413953 3.1641955701911959 2 88.564481387663989 1.4 2 19.229688225323248 8.5164240209370448 2 27.108890902623187 8.6523906132246609 2 35.104156463552712 1.4 2 64.728296862540589 5.0816272845364407 2 89.915482624123086 2.5465773448780387 2 17.438455019983376 1.4 2 23.329344349631906 1.4 2 35.284676148829661 4.7746555612579318 2 62.586219971480524 1.4 2 86.737465294982783 3.7257757576567441 2 21.270909375870282 1.4 2 23.499863479248841 5.6608482795641919 2 36.66128657107339 3.7227800222026506 2 66.158494724260947 1.4 2 89.487931804879139 4.9161252642775333 2 19.412225182962537 3.1841754634050194 2 22.237524273821411 3.934716078750971 2 37.252322759812515 9.6301476920629341 2 60.001423785975035 4.3885587784931905 2 88.114673157542029 3.6825462470753214 2 19.821889727445747 4.5672583579571464 2 24.801364364336234 8.7327143975418355 2 36.852686697321033 1.4 2 65.512309517503525 3.8311490462253861 2 89.436773175596343 1.4 2 15.061739465504616 2.6600879289816373 2 24.360240943387367 3.2631540729888227 2 35.321368776475339 3.4005689546571003 2 64.149614184823506 1.4 2 85.688327989131679 1.4 2 21.768060279514902 2.5987537441003465 2 25.441434602161042 2.6098481804933966 2 36.616789714449766 5.2430458974509451 2 65.689522796389525 2.0840135916670799 2 88.641862031964095 6.2701649806700583 2 18.372533131529217 1.4 2 20.393126900158876 6.3587937973542257 2 35.281205565964981 6.5452607588039298 2 62.950468400446155 4.8939954840018807 2 87.648262817269156 1.4 2 18.671577219786673 6.2530493946368173 2 25.909780324217699 6.7428342353244144 2 34.508133844779046 2.5719167021620675 2 63.530563947448037 3.5285310791902975 2 89.257967673338783 3.5185418397555859 2 16.231135606739493 1.4 2 24.255701042470086 1.4 2 33.70943948531049 4.534373811517538 2 61.771101916660662 1.4 2 85.720833784233662 2.9951312016538258 2 22.365840692618267 1.4 2 23.62419037944505 4.1750793142741234 2 36.80819441432984 2.5866022697735094 2 67.058410343595369 1.4 2 90.753746793279532 4.3763115566545121 2 20.466040681437484 2.5555170318418896 2 21.865822065333742 5.7908981727243045 2 36.933626203887989 7.4055333869099851 2 61.602761389242701 4.8002779502714015 2 87.438674600589906 2.4881090780084691 2 21.064258909549693 4.165241816194035 2 23.471014371511323 7.3189301065098258 2 37.817561182790513 1.4 2 64.474459901694757 3.0643604025668205 2 90.481786829829858 1.4 2 16.58278459520659 2.1016691857666818 2 23.166294338350951 2.6315163514685063 2 35.967852118965595 1.4 2 63.358957203828773 1.4 2 86.66260326836246 1.4 2 </DataArray>
</Points>
<Cells>
<DataArray Name="connectivity" format="ascii" type="Int32">0</DataArray>
<DataArray Name="offsets" format="ascii" type="Int32">0</DataArray>
<DataArray Name="types" format="ascii" type="UInt8">1</DataArray>
</Cells>
<PointData>
<DataArray Name="Points" NumberOfComponents="3" format="ascii" type="Float32">20.23274828314316 1.4 2 25.661195337669351 4.0816095294824057 2 37.876288694993292 6.0303841499638562 2 64.978236460866583 1.4 2 89.946380966631423 8.5574443990899969 2 19.254515285578353 1.4 2 21.571797134681258 8.1637852884362285 2 34.985370050026788 8.8024505427926183 2 62.478885852413953 3.1641955701911959 2 88.564481387663989 1.4 2 19.229688225323248 8.5164240209370448 2 27.108890902623187 8.6523906132246609 2 35.104156463552712 1.4 2 64.728296862540589 5.0816272845364407 2 89.915482624123086 2.5465773448780387 2 17.438455019983376 1.4 2 23.329344349631906 1.4 2 35.284676148829661 4.7746555612579318 2 62.586219971480524 1.4 2 86.737465294982783 3.7257757576567441 2 21.270909375870282 1.4 2 23.499863479248841 5.6608482795641919 2 36.66128657107339 3.7227800222026506 2 66.158494724260947 1.4 2 89.487931804879139 4.9161252642775333 2 19.412225182962537 3.1841754634050194 2 22.237524273821411 3.934716078750971 2 37.252322759812515 9.6301476920629341 2 60.001423785975035 4.3885587784931905 2 88.114673157542029 3.6825462470753214 2 19.821889727445747 4.5672583579571464 2 24.801364364336234 8.7327143975418355 2 36.852686697321033 1.4 2 65.512309517503525 3.8311490462253861 2 89.436773175596343 1.4 2 15.061739465504616 2.6600879289816373 2 24.360240943387367 3.2631540729888227 2 35.321368776475339 3.4005689546571003 2 64.149614184823506 1.4 2 85.688327989131679 1.4 2 21.768060279514902 2.5987537441003465 2 25.441434602161042 2.6098481804933966 2 36.616789714449766 5.2430458974509451 2 65.689522796389525 2.0840135916670799 2 88.641862031964095 6.2701649806700583 2 18.372533131529217 1.4 2 20.393126900158876 6.3587937973542257 2 35.281205565964981 6.5452607588039298 2 62.950468400446155 4.8939954840018807 2 87.648262817269156 1.4 2 18.671577219786673 6.2530493946368173 2 25.909780324217699 6.7428342353244144 2 34.508133844779046 2.5719167021620675 2 63.530563947448037 3.5285310791902975 2 89.257967673338783 3.5185418397555859 2 16.231135606739493 1.4 2 24.255701042470086 1.4 2 33.70943948531049 4.534373811517538 2 61.771101916660662 1.4 2 85.720833784233662 2.9951312016538258 2 22.365840692618267 1.4 2 23.62419037944505 4.1750793142741234 2 36.80819441432984 2.5866022697735094 2 67.058410343595369 1.4 2 90.753746793279532 4.3763115566545121 2 20.466040681437484 2.5555170318418896 2 21.865822065333742 5.7908981727243045 2 36.933626203887989 7.4055333869099851 2 61.602761389242701 4.8002779502714015 2 87.438674600589906 2.4881090780084691 2 21.064258909549693 4.165241816194035 2 23.471014371511323 7.3189301065098258 2 37.817561182790513 1.4 2 64.474459901694757 3.0643604025668205 2 90.481786829829858 1.4 2 16.58278459520659 2.1016691857666818 2 23.166294338350951 2.6315163514685063 2 35.967852118965595 1.4 2 63.358957203828773 1.4 2 86.66260326836246 1.4 2 </DataArray>
<DataArray Name="forces" NumberOfComponents="3" format="ascii" type="Float32">0.0037948765223110303 -3.0923222198431164 0.0 -0.005188312428311994 1.0288923423509075 0.0 -0.022931913141789551 0.88206882729609326 0.0 0.14627792486090141 -2.906911843921935 0.0 -0.012192375246940654 1.0561301428571621 0.0 0.042106914101539716 -2.6779801151659042 0.0 0.067834781870939498 1.1744470088574002 0.0 -0.056500234304678432 1.0582615654907408 0.0 -0.071528198039466806 1.1110170772240013 0.0 -0.011459729500860938 -2.5291995866542107 0.0 0.026171919351040782 1.1369922465274611 0.0 -0.10167603156355615 0.98737816337182149 0.0 0.054081605421098633 -2.7281276901931837 0.0 -0.10554222217768933 0.98600974711851141 0.0 -0.014187871650307327 1.0357139845307666 0.0 0.029663128967970298 -2.9477062999890329 0.0 -0.016086388281531916 -2.8646629989283312 0.0 0.0421725123161866 1.0753918214707563 0.0 -0.0080184074480871281 -2.3915279131326166 0.0 0.13840864962211663 1.2808564009279264 0.0 -0.003007594724886431 -3.0843401643461954 0.0 -0.015167468300709194 1.017535229739815 0.0 -0.036488952777672889 1.1269993311840021 0.0 0.2185247634214878 -3.5032163594607431 0.0 0.01955627132894211 1.0709824170650262 0.0 -0.049212440080563136 1.2935838162780664 0.0 -0.06154540968813238 1.1283642838287167 0.0 0.028201671221646629 0.99905897007706446 0.0 -0.029999491202926054 0.96711619709176899 0.0 0.030959045678412678 1.1124811494057745 0.0 0.026335178998630582 1.1039287650531451 0.0 -0.15638703990697567 1.0993068350825062 0.0 0.057824984735545759 -2.9309308716666482 0.0 -0.21651272023780904 1.0432828814246851 0.0 -0.0023819284792883089 -2.819744012156995 0.0 -0.062929628188447717 1.4353968438365818 0.0 0.031053236458033373 1.1545713863123905 0.0 -0.10395334961291239 1.1335045469564866 0.0 0.0933533938000084 -2.3618453681813953 0.0 0.18082661176080617 -2.927332228065719 0.0 -0.02012273831680722 1.0928372048042776 0.0 0.12826573884807096 1.2280165604586255 0.0 0.0085029815293627409 1.075809883085642 0.0 -0.086981590221581528 1.0753836561015715 0.0 0.10475975652320535 0.94028060699725469 0.0 0.048546392462282428 -2.903252607686551 0.0 0.020587518148053652 1.1451132208545756 0.0 0.0034490159444411361 1.0834900351914771 0.0 0.024026434888743453 0.975695790756267 0.0 0.0081586177707428931 -2.8236286399913895 0.0 0.051343708237555519 1.0410080288215058 0.0 -0.070595103588733055 1.0301859735158159 0.0 -0.11788725820839463 1.0837577313108762 0.0 -0.19297770009412687 0.93114003716226756 0.0 0.024174948757391096 1.1621437918026707 0.0 -0.18508827410973938 -3.7251929025821302 0.0 -0.053932582748219215 -2.6065154832335913 0.0 -0.038237419719291177 1.0596788385504254 0.0 -0.030279515146957259 -2.8350612065948679 0.0 0.033949047849942127 1.3585837146146873 0.0 0.0054193972213140151 -3.0334875915238158 0.0 -0.097850447031434529 1.0614365235482319 0.0 -0.14145196163578411 1.1345929479597454 0.0 0.081819692962529694 -3.1697543094401541 0.0 -0.050948289401574254 0.99269180522664391 0.0 -0.070025226002546112 1.0715950540906771 0.0 -0.076683857622849461 1.1107595101371546 0.0 0.010926021756915039 1.0141441603583417 0.0 -0.0076895326518010843 1.1846363622095595 0.0 -0.042471666323620427 1.1725502794963514 0.0 -0.0077725300452144708 1.0474241551939005 0.0 0.0014295772561344067 0.90471531924556059 0.0 0.016756656152947302 -3.1161734253645634 0.0 -0.065321306840007365 1.0517479228570541 0.0 0.032963515197067139 -3.0514239583479754 0.0 0.16285939704747554 0.81895690872831728 0.0 0.04031759836742195 1.1805458717937176 0.0 0.071583991717007467 -2.7526543660688163 0.0 0.03709546019276333 -2.2966300174507133 0.0 0.049994720183071384 -2.8570748118122475 0.0 </DataArray>
<DataArray Name="radii" format="ascii" type="Float32">1.4 1.4 1.4 1.4 1.4 1.4 1.4 1.4 1.4 1.4 1.4 1.4 1.4 1.4 1.4 1.4 1.4 1.4 1.4 1.4 1.4 1.4 1.4 1.4 1.4 1.4 1.4 1.4 1.4 1.4 1.4 1.4 1.4 1.4 1.4 1.4 1.4 1.4 1.4 1.4 1.4 1.4 1.4 1.4 1.4 1.4 1.4 1.4 1.4 1.4 1.4 1.4 1.4 1.4 1.4 1.4 1.4 1.4 1.4 1.4 1.4 1.4 1.4 1.4 1.4 1.4 1.4 1.4 1.4 1.4 1.4 1.4 1.4 1.4 1.4 1.4 1.4 1.4 1.4 1.4 </DataArray>
</PointData>
<CellData/>
</Piece>
</UnstructuredGrid>
</VTKFile>
