<?xml version="1.0" ?>
<VTKFile byte_order="LittleEndian" type="UnstructuredGrid" version="0.1">
<UnstructuredGrid>
<Piece NumberOfCells="0" NumberOfPoints="32">
<Points>
<DataArray NumberOfComponents="3" format="ascii" type="Float32">1.4 1.4 2 12.600980756305487 3.5427399135419164 2 27.643214906334872 3.6145162065057157 2 48.064797052063277 3.6267388825057263 2 51.606220445809036 1.4 2 74.457450102912233 1.4 2 83.499534624643076 1.4 2 92.14621644555703 1.4 2 4.684073357290913 3.7703129053164335 2 11.274107743307248 1.4 2 28.830354434976659 1.4 2 46.858648924470479 5.8998298544635803 2 52.050989882501462 5.9784259194224658 2 77.177983470323838 3.7040270105363349 2 84.717265893999539 6.0638420010656802 2 96.540595924971726 1.4 2 3.7168272325624798 1.4 2 11.331172537500246 5.8104147065121916 2 26.34899252595439 1.4 2 49.282128543213418 1.4 2 50.6221190216881 3.7265583469186292 2 74.545392159873117 3.6759212117492117 2 82.529069752151941 3.8027262722406632 2 93.090895174034088 3.7861524739528485 2 1.9821348590600198 3.8541832263743236 2 8.6716875120993517 1.4 2 30.129836677546663 3.5411451886695158 2 44.083020016086174 5.8660057666996437 2 53.320647583428162 3.6858834404934586 2 76.632161599246075 1.4 2 85.234741378301877 3.5904222098432941 2 94.347597609616145 1.4 2 </DataArray>
</Points>
<Cells>
<DataArray Name="connectivity" format="ascii" type="Int32">0</DataArray>
<DataArray Name="offsets" format="ascii" type="Int32">0</DataArray>
<DataArray Name="types" format="ascii" type="UInt8">1</DataArray>
</Cells>
<PointData>
<DataArray Name="Points" NumberOfComponents="3" format="ascii" type="Float32">1.4 1.4 2 12.600980756305487 3.5427399135419164 2 27.643214906334872 3.6145162065057157 2 48.064797052063277 3.6267388825057263 2 51.606220445809036 1.4 2 74.457450102912233 1.4 2 83.499534624643076 1.4 2 92.14621644555703 1.4 2 4.684073357290913 3.7703129053164335 2 11.274107743307248 1.4 2 28.830354434976659 1.4 2 46.858648924470479 5.8998298544635803 2 52.050989882501462 5.9784259194224658 2 77.177983470323838 3.7040270105363349 2 84.717265893999539 6.0638420010656802 2 96.540595924971726 1.4 2 3.7168272325624798 1.4 2 11.331172537500246 5.8104147065121916 2 26.34899252595439 1.4 2 49.282128543213418 1.4 2 50.6221190216881 3.7265583469186292 2 74.545392159873117 3.6759212117492117 2 82.529069752151941 3.8027262722406632 2 93.090895174034088 3.7861524739528485 2 1.9821348590600198 3.8541832263743236 2 8.6716875120993517 1.4 2 30.129836677546663 3.5411451886695158 2 44.083020016086174 5.8660057666996437 2 53.320647583428162 3.6858834404934586 2 76.632161599246075 1.4 2 85.234741378301877 3.5904222098432941 2 94.347597609616145 1.4 2 </DataArray>
<DataArray Name="forces" NumberOfComponents="3" format="ascii" type="Float32">-0.54846090518788682 -0.27145707914770645 0.0 -0.013188379883734669 0.276459180196581 0.0 -0.024893455915177443 0.27453670352190113 0.0 0.0075849869165302286 0.27961702685214496 0.0 0.022888128296590704 -0.25188424748282795 0.0 -0.055139454603859051 -0.52913410834568009 0.0 0.012105061230586411 -0.19918186392956325 0.0 -0.0047467597435074671 -0.21606165899100596 0.0 -0.018736625180800395 0.25327536344706014 0.0 -0.0042338654843938894 -0.48024894172477439 0.0 -0.030585149216954433 -0.50899638126047686 0.0 -0.033529003851373917 0.28075526126104711 0.0 -0.016016551707152993 0.27045423918983047 0.0 0.077610104643670533 0.24890969453716588 0.0 -0.055202373465613193 0.26930269328962553 0.0 -0.0062814615369937155 -0.43239845239837332 0.0 0.0024156594766749639 -0.22078372787537331 0.0 -0.019413771341247346 0.29639498234070338 0.0 -0.022138209601787362 -0.41137898213559132 0.0 0.017662587866884571 -0.33253855991559628 0.0 0.019376040476548131 0.2508683078002048 0.0 0.11897705068762168 0.30151432673174455 0.0 0.020266545638286629 0.25395281314866475 0.0 -0.022915857638850769 0.25332441549883777 0.0 -0.033882056692550344 0.27442318680052519 0.0 0.0048532527848676454 -0.43628030295575981 0.0 -0.028805704921688352 0.27216784235611913 0.0 -0.03052271402345386 0.28218789800428268 0.0 0.026238545432505339 0.27981016867179209 0.0 -0.036154619965454327 -0.42372779324394533 0.0 0.022037118946986414 0.27110925020046051 0.0 -0.0049602368729598292 -0.15867047099274248 0.0 </DataArray>
<DataArray Name="radii" format="ascii" type="Float32">1.4 1.4 1.4 1.4 1.4 1.4 1.4 1.4 1.4 1.4 1.4 1.4 1.4 1.4 1.4 1.4 1.4 1.4 1.4 1.4 1.4 1.4 1.4 1.4 1.4 1.4 1.4 1.4 1.4 1.4 1.4 1.4 </DataArray>
</PointData>
<CellData/>
</Piece>
</UnstructuredGrid>
</VTKFile>
