<?xml version="1.0" ?>
<VTKFile byte_order="LittleEndian" type="UnstructuredGrid" version="0.1">
<UnstructuredGrid>
<Piece NumberOfCells="0" NumberOfPoints="128">
<Points>
<DataArray NumberOfComponents="3" format="ascii" type="Float32">1 2.3400662397451844 2 11.255217172723606 2.4055461856338316 2 28.446564385435444 5.298097698874944 2 47.171064599223612 6.1386702724432318 2 52.337468745100992 1 2 73.992870687622855 2.1942309945723584 2 84.570965334744457 1 2 91.726753756307872 1 2 3.9521804166195484 5.9866215789177417 2 12.559508682204157 1 2 28.651267041020834 1 2 48.950118964640652 7.5538076827008034 2 51.942916756123672 7.9955731884814591 2 76.943802766547037 4.9171346725913221 2 87.294651978686844 7.9068686220699096 2 95.914814333266676 3.8222542232870609 2 2.4493303883415916 1 2 13.00489269064686 8.2696001229110756 2 27.159624099353454 1 2 48.495238258439741 1 2 52.182013754473317 6.071514095408765 2 74.517697759393485 5.8964610944756943 2 82.902300617103222 6.0421957031343885 2 92.068208582118601 5.7834255679889521 2 2.1239410986536997 4.2243684760680376 2 8.0607639090066634 2.3697810314062333 2 29.293961205018405 4.0848983653292787 2 44.299013998667583 7.5303611724201929 2 53.344470505438011 5.0120396500278934 2 75.632551493700262 1.139938078118873 2 84.467795855194822 6.084059992835078 2 93.713856392023942 1.4302625455058469 2 1 1 2 12.660300113179112 5.3068099553360728 2 25.140297811649365 5.6729559764752118 2 48.887925544454994 5.8969160555187745 2 51.538811017470614 4.2622767375703265 2 75.001577780550008 2.8734533619396592 2 83.19141169920735 1 2 94.450062841070732 4.1580948328705407 2 3.5220125557014281 8.5624311295741844 2 11.295094567462032 1 2 27.578888870732982 3.8581305728938551 2 46.018626022990226 7.409379511251216 2 50.265068381103042 8.8372597298090572 2 78.515324810704783 4.3615332640207072 2 84.343188499470472 7.9063505094001751 2 96.929456639553734 1 2 3.7641899845633806 2.619233135180187 2 10.138619004392149 6.6599519704125711 2 25.153585450711176 1.4379379709353117 2 51.082813884164302 1 2 50.175383947292381 3.4608753462308073 2 76.899972433006951 7.7328732175905941 2 84.444274459831277 4.1717717967514387 2 91.687300448886447 3.8583888128746011 2 1.7799526323484001 7.6685499825723697 2 8.8268802930168597 1 2 29.754433948356091 1 2 41.189923859313758 7.6297750670495157 2 55.377962439188728 7.8879364364133506 2 77.70090926096097 1 2 87.555635064875304 5.3585056071248847 2 94.670901775299782 1 2 1 3.8917362705876313 2 12.199112929705686 3.8230184812319394 2 28.115670112263807 6.9047917162638388 2 46.031688223117136 4.7055069934769342 2 52.45503269795131 2.3598214427205999 2 74.596405062342754 1 2 84.514821930086327 2.2855895788170768 2 91.370144284918723 2.3716277336163851 2 3.3401450695086736 4.2517965865577452 2 12.565140051945606 2.3576428308862751 2 28.8020138466023 2.6641980839301369 2 47.420371364219264 8.1588281725893914 2 53.612841005232191 7.9967370625209186 2 77.19259957824724 3.5471868788853409 2 85.80022561201362 8.9493270259643314 2 96.970523899001847 2.6198455771319957 2 3.7781654415055654 1 2 10.839517341180857 8.4093361738126262 2 26.641151433520459 2.6906605292161387 2 49.414228112108091 2.2280922208111837 2 50.501027174211856 5.2833296951311448 2 75.530472134580663 4.4591961482681635 2 82.838840469646783 4.7846855724880371 2 90.542204149418652 6.6380253561916422 2 2.4824208630689997 5.9777161342242655 2 9.1608769003504378 3.2140173323382388 2 30.780356835668577 4.3445678363102909 2 42.952586525328158 8.4581486739409844 2 54.140220243880933 6.3574931236657557 2 76.598944026359518 1 2 85.675013325529576 4.974495381983191 2 92.784292251972573 1 2 2.3866143405883027 2.5220681093557991 2 11.14613671988613 5.2936470275664034 2 26.860343108993501 5.5255460727697701 2 49.130523375140235 4.2865688770798851 2 52.5889384414264 3.6151482164659128 2 74.069148760455164 4.0868883408374153 2 81.453618097315697 2.324941148900213 2 94.202593758402472 2.8299393585423034 2 4.9364942148554833 7.3969441368523414 2 10.05977460498652 1 2 27.756030663623125 2.0445008462188201 2 45.389921926292381 9.1089355499332054 2 50.566173174425678 6.9065922161511946 2 77.823819428993559 2.2686517331166018 2 82.632436273275573 7.5648653872739358 2 95.482964431900967 2.3621666519534896 2 4.6273232933488506 4.306804178712083 2 11.959214937454776 6.8662929534394799 2 26.068158886870634 1 2 49.874797497831977 1 2 51.09169798249129 2.4350020268216706 2 76.111596073653985 6.2736873462175273 2 83.235296402983096 3.3567867098461099 2 92.782728597026662 2.7806035025415801 2 1 5.7677253515812748 2 9.8770251577965542 2.2490628920207234 2 30.870709715530314 1 2 41.40279890907518 9.4263638979973976 2 54.726120765036178 9.5884041560716398 2 76.235794891930126 2.6936953009997278 2 86.257095513175457 6.5029707073979024 2 95.883430987121116 1 2 </DataArray>
</Points>
<Cells>
<DataArray Name="connectivity" format="ascii" type="Int32">0</DataArray>
<DataArray Name="offsets" format="ascii" type="Int32">0</DataArray>
<DataArray Name="types" format="ascii" type="UInt8">1</DataArray>
</Cells>
<PointData>
<DataArray Name="Points" NumberOfComponents="3" format="ascii" type="Float32">1 2.3400662397451844 2 11.255217172723606 2.4055461856338316 2 28.446564385435444 5.298097698874944 2 47.171064599223612 6.1386702724432318 2 52.337468745100992 1 2 73.992870687622855 2.1942309945723584 2 84.570965334744457 1 2 91.726753756307872 1 2 3.9521804166195484 5.9866215789177417 2 12.559508682204157 1 2 28.651267041020834 1 2 48.950118964640652 7.5538076827008034 2 51.942916756123672 7.9955731884814591 2 76.943802766547037 4.9171346725913221 2 87.294651978686844 7.9068686220699096 2 95.914814333266676 3.8222542232870609 2 2.4493303883415916 1 2 13.00489269064686 8.2696001229110756 2 27.159624099353454 1 2 48.495238258439741 1 2 52.182013754473317 6.071514095408765 2 74.517697759393485 5.8964610944756943 2 82.902300617103222 6.0421957031343885 2 92.068208582118601 5.7834255679889521 2 2.1239410986536997 4.2243684760680376 2 8.0607639090066634 2.3697810314062333 2 29.293961205018405 4.0848983653292787 2 44.299013998667583 7.5303611724201929 2 53.344470505438011 5.0120396500278934 2 75.632551493700262 1.139938078118873 2 84.467795855194822 6.084059992835078 2 93.713856392023942 1.4302625455058469 2 1 1 2 12.660300113179112 5.3068099553360728 2 25.140297811649365 5.6729559764752118 2 48.887925544454994 5.8969160555187745 2 51.538811017470614 4.2622767375703265 2 75.001577780550008 2.8734533619396592 2 83.19141169920735 1 2 94.450062841070732 4.1580948328705407 2 3.5220125557014281 8.5624311295741844 2 11.295094567462032 1 2 27.578888870732982 3.8581305728938551 2 46.018626022990226 7.409379511251216 2 50.265068381103042 8.8372597298090572 2 78.515324810704783 4.3615332640207072 2 84.343188499470472 7.9063505094001751 2 96.929456639553734 1 2 3.7641899845633806 2.619233135180187 2 10.138619004392149 6.6599519704125711 2 25.153585450711176 1.4379379709353117 2 51.082813884164302 1 2 50.175383947292381 3.4608753462308073 2 76.899972433006951 7.7328732175905941 2 84.444274459831277 4.1717717967514387 2 91.687300448886447 3.8583888128746011 2 1.7799526323484001 7.6685499825723697 2 8.8268802930168597 1 2 29.754433948356091 1 2 41.189923859313758 7.6297750670495157 2 55.377962439188728 7.8879364364133506 2 77.70090926096097 1 2 87.555635064875304 5.3585056071248847 2 94.670901775299782 1 2 1 3.8917362705876313 2 12.199112929705686 3.8230184812319394 2 28.115670112263807 6.9047917162638388 2 46.031688223117136 4.7055069934769342 2 52.45503269795131 2.3598214427205999 2 74.596405062342754 1 2 84.514821930086327 2.2855895788170768 2 91.370144284918723 2.3716277336163851 2 3.3401450695086736 4.2517965865577452 2 12.565140051945606 2.3576428308862751 2 28.8020138466023 2.6641980839301369 2 47.420371364219264 8.1588281725893914 2 53.612841005232191 7.9967370625209186 2 77.19259957824724 3.5471868788853409 2 85.80022561201362 8.9493270259643314 2 96.970523899001847 2.6198455771319957 2 3.7781654415055654 1 2 10.839517341180857 8.4093361738126262 2 26.641151433520459 2.6906605292161387 2 49.414228112108091 2.2280922208111837 2 50.501027174211856 5.2833296951311448 2 75.530472134580663 4.4591961482681635 2 82.838840469646783 4.7846855724880371 2 90.542204149418652 6.6380253561916422 2 2.4824208630689997 5.9777161342242655 2 9.1608769003504378 3.2140173323382388 2 30.780356835668577 4.3445678363102909 2 42.952586525328158 8.4581486739409844 2 54.140220243880933 6.3574931236657557 2 76.598944026359518 1 2 85.675013325529576 4.974495381983191 2 92.784292251972573 1 2 2.3866143405883027 2.5220681093557991 2 11.14613671988613 5.2936470275664034 2 26.860343108993501 5.5255460727697701 2 49.130523375140235 4.2865688770798851 2 52.5889384414264 3.6151482164659128 2 74.069148760455164 4.0868883408374153 2 81.453618097315697 2.324941148900213 2 94.202593758402472 2.8299393585423034 2 4.9364942148554833 7.3969441368523414 2 10.05977460498652 1 2 27.756030663623125 2.0445008462188201 2 45.389921926292381 9.1089355499332054 2 50.566173174425678 6.9065922161511946 2 77.823819428993559 2.2686517331166018 2 82.632436273275573 7.5648653872739358 2 95.482964431900967 2.3621666519534896 2 4.6273232933488506 4.306804178712083 2 11.959214937454776 6.8662929534394799 2 26.068158886870634 1 2 49.874797497831977 1 2 51.09169798249129 2.4350020268216706 2 76.111596073653985 6.2736873462175273 2 83.235296402983096 3.3567867098461099 2 92.782728597026662 2.7806035025415801 2 1 5.7677253515812748 2 9.8770251577965542 2.2490628920207234 2 30.870709715530314 1 2 41.40279890907518 9.4263638979973976 2 54.726120765036178 9.5884041560716398 2 76.235794891930126 2.6936953009997278 2 86.257095513175457 6.5029707073979024 2 95.883430987121116 1 2 </DataArray>
<DataArray Name="forces" NumberOfComponents="3" format="ascii" type="Float32">-0.61515385031828629 0.15198393185880088 0.0 -0.010811246159529997 0.1156340735874825 0.0 0.11484209425659786 0.24638663475792166 0.0 0.01596998134965634 0.2380174268583071 0.0 0.0039048464482172307 -0.70871184092648865 0.0 0.034985808122603129 0.1680384069935496 0.0 0.029337926993803311 -0.75293151394935665 0.0 -0.065145230296376533 -0.55284435452878955 0.0 0.028858204207266286 0.17307233794932067 0.0 0.046721145433513182 -0.76482309864004738 0.0 -0.011698282232622148 -0.80948190420870902 0.0 -0.010771979030206824 0.19529035101154379 0.0 -0.036741348014342479 0.14671580344862653 0.0 0.080560229810918621 0.28372558546024068 0.0 0.069931535270313677 0.27943366330206348 0.0 0.056998883461176944 0.11892222234424676 0.0 -0.088292988481559392 -0.49442643663380376 0.0 0.009349992925679812 0.29964337713991829 0.0 0.071910363827642598 -0.91917073479310574 0.0 -0.010155955085657919 -0.6376624430951543 0.0 -0.0092325781811745111 0.28869985817777533 0.0 -0.011872875894155643 0.1280114351618695 0.0 0.072735856938376989 0.26461112071507625 0.0 0.039961171093790659 0.13995870221354453 0.0 -0.021431021664322071 0.20959226366805661 0.0 -0.0025508257598800821 0.18347963460908315 0.0 0.0042423969494399527 0.12436330440911333 0.0 0.047399758887688673 0.24279481112417706 0.0 -0.10541826399339174 0.13825848705365931 0.0 -0.090426637337166965 -0.18856372907610366 0.0 0.022035728030457613 0.1340521963984975 0.0 0.051880749001403409 0.014090558900669792 0.0 -0.54258342245071223 -0.66128662434612684 0.0 -0.028808159222619839 0.16456860173146493 0.0 0.016599874266719494 0.21576490545837745 0.0 -0.0041266630029476031 0.17223309309262821 0.0 0.067667675045664177 0.26376851598374274 0.0 0.047112402743298087 0.094141142301992151 0.0 0.059080203219251934 -0.90535419391613736 0.0 0.09845479517459943 0.29173384998432955 0.0 -0.092149128509279005 0.12822069957403268 0.0 0.034015530576193553 -0.77047770543113669 0.0 -0.01336019032500357 0.24038606361241741 0.0 0.038372311844355134 0.23893041030202264 0.0 0.00044283136466163713 0.21696057703607929 0.0 0.0087668887995467903 0.16382220416416832 0.0 0.072025088591833569 0.10282827491648766 0.0 -0.040141256366867495 -0.38543388997832739 0.0 0.024439372824467842 0.12515450998363803 0.0 0.018316374464976193 0.19076038404520687 0.0 0.050287468921495715 -0.014061778495741084 0.0 -0.0047759070504385451 -0.61467432882952067 0.0 0.068359050131837573 0.176597960858212 0.0 0.019703966116392108 0.20577351497034299 0.0 -0.00030585075257744121 0.24040835055712628 0.0 -0.095203019400688205 0.12566472731212794 0.0 -0.10184076873836193 0.13848202354417535 0.0 -0.029852847070487104 -0.65704507614637775 0.0 -0.029228442142491984 -0.44440178641157541 0.0 0.1216002971117785 0.21681631955073144 0.0 -0.01676349276234311 0.1759416433108727 0.0 0.037170338304634967 -0.7221150144538474 0.0 -0.087169665331048446 0.27528946843565172 0.0 0.0053195376022988627 -0.86352834636234888 0.0 -0.83039466583661803 0.12751061959592497 0.0 -0.062343397868655517 0.15925433557443067 0.0 -0.0041431018962681809 0.2330213845243902 0.0 0.01625725596873101 0.19911879910812896 0.0 -0.01715555314198991 0.13230763718208932 0.0 -0.084904964509927974 -0.81969712128994132 0.0 0.02145986506637261 0.16579939315578415 0.0 0.099413655517403998 0.06585221353757037 0.0 -0.023473014543158865 0.085711280438386092 0.0 0.022240360721546559 0.15229415255413731 0.0 -0.049263130701074243 0.16857884108279358 0.0 0.034290460862390015 0.32169577183935777 0.0 -0.018857185133046087 0.23503971079026326 0.0 -0.068215637562189846 0.17488962844661199 0.0 0.026684461662042996 0.22432836099760839 0.0 0.10643244813272676 0.11969999726005268 0.0 -0.10477553343477623 -0.47053381081345336 0.0 -0.013229078011634865 0.18274047454127995 0.0 -0.059764215000862958 0.17851259199292746 0.0 0.034154233028066472 0.13779005831441951 0.0 -0.0034465096467949617 0.17280683880505637 0.0 0.076603236589040835 0.12897702179939241 0.0 -0.066003000291908004 0.16762319700052108 0.0 -0.017632697768486527 0.13146324142015889 0.0 0.044368461346137755 0.18278161429297343 0.0 0.041187647902735935 0.2235713975410431 0.0 -0.054494705682527365 0.11441997082678 0.0 -0.12440430187035409 0.13186836882242975 0.0 -0.054577872842456521 0.17692541177098284 0.0 0.0056581022333276679 -0.59839597595534144 0.0 0.099986725684974104 0.2086404042907461 0.0 -0.043636356576714386 -0.64779754981040705 0.0 0.029924598425846785 0.18738218235369292 0.0 -0.029667081856079427 0.19942615404327127 0.0 0.034694016313710718 0.17030217686560542 0.0 0.0039323217427840174 0.14118209543076482 0.0 -0.0013447283764541108 0.075896748371707151 0.0 0.061857921435723551 0.18374317406754098 0.0 -0.055381282599385073 0.16017265239839637 0.0 -0.01306178726119156 0.18482691173177798 0.0 0.036855227158194892 0.24564500626050803 0.0 0.0085462189527517746 -0.84439970673552711 0.0 -0.03816368278117406 0.23976548427279062 0.0 -0.021198075724124452 0.24207367976985367 0.0 -0.057357258341171516 0.1855474234702128 0.0 -0.02862729116524404 0.14849295099158011 0.0 -0.052898799311320459 0.33725984704859729 0.0 0.022576656340305062 0.1627272245124376 0.0 0.006836181383182649 0.22640651772095235 0.0 0.060053302752142483 0.21262669321371014 0.0 0.071829992715454385 -0.79901774922288094 0.0 -0.00677117620805745 -0.73502620373792293 0.0 0.0043239926860532824 0.16504383571730735 0.0 -0.070924199384053574 0.2268962714857187 0.0 0.11370721111032403 0.12579183827410012 0.0 0.020943972876912804 0.073042465944011009 0.0 -0.55158762705990882 0.12114733555278688 0.0 -0.044583125891866041 0.10929298382330188 0.0 0.0057238983021819789 -0.94302170852054912 0.0 -0.12826314619523377 0.28734848694199683 0.0 -0.033666460228268122 0.21618934814047497 0.0 -0.032986846030571559 -0.0065703079373759937 0.0 -0.064128906271861935 0.35175244072072653 0.0 -0.033804530905273078 -0.60255183078575325 0.0 </DataArray>
<DataArray Name="radii" format="ascii" type="Float32">1 1 1 1 1 1 1 1 1 1 1 1 1 1 1 1 1 1 1 1 1 1 1 1 1 1 1 1 1 1 1 1 1 1 1 1 1 1 1 1 1 1 1 1 1 1 1 1 1 1 1 1 1 1 1 1 1 1 1 1 1 1 1 1 1 1 1 1 1 1 1 1 1 1 1 1 1 1 1 1 1 1 1 1 1 1 1 1 1 1 1 1 1 1 1 1 1 1 1 1 1 1 1 1 1 1 1 1 1 1 1 1 1 1 1 1 1 1 1 1 1 1 1 1 1 1 1 1 </DataArray>
</PointData>
<CellData/>
</Piece>
</UnstructuredGrid>
</VTKFile>
