<?xml version="1.0" ?>
<VTKFile byte_order="LittleEndian" type="UnstructuredGrid" version="0.1">
<UnstructuredGrid>
<Piece NumberOfCells="0" NumberOfPoints="40">
<Points>
<DataArray NumberOfComponents="3" format="ascii" type="Float32">20.806439333890459 1 2 25.908966608566711 2.7531032806455307 2 37.57514356415389 5.1600237676537937 2 64.662173150587037 1 2 88.514630261986426 5.4884539319167231 2 18.833652998439831 1 2 22.882055719963667 6.0512396541755349 2 36.210705033742435 6.5472345770572762 2 62.467451199483506 4.1876067982026806 2 87.970878056398959 1 2 19.255025660531281 5.499455176940355 2 26.823909308450421 6.652085921097953 2 35.184233551256007 1 2 64.437199697537721 4.0076019105868985 2 89.35306122452694 2.1126496109880306 2 16.930660256488274 1 2 22.915998892726044 1 2 35.253214452650198 4.8463473633326446 2 62.401420384152232 1 2 85.562769238972606 2.8573824993098671 2 21.791454788365559 2.5400147238036745 2 24.406997792880439 4.5275291106469346 2 37.240056764243882 3.2376588805121123 2 66.650459610482585 1 2 89.582374961551906 3.9046608328111208 2 19.856455397923387 2.5835038258776191 2 22.632450302924411 4.1418377751854614 2 38.07470439898951 7.2050488965223165 2 60.553192214937539 4.2978143491814009 2 87.623826468186195 2.8727942210106114 2 20.747249658319966 4.266241834384112 2 24.989488619942161 7.4456075325549405 2 36.969909074956881 1.2955364514448864 2 65.783925239178686 2.6830438288325205 2 90.571464994525869 1 2 15.605682637278161 2.3058224302036656 2 23.918526493788629 2.6468421424448345 2 35.332136451522935 2.9007412645472876 2 63.404805496973985 2.4835731678197428 2 86.174366564531113 1 2 </DataArray>
</Points>
<Cells>
<DataArray Name="connectivity" format="ascii" type="Int32">0</DataArray>
<DataArray Name="offsets" format="ascii" type="Int32">0</DataArray>
<DataArray Name="types" format="ascii" type="UInt8">1</DataArray>
</Cells>
<PointData>
<DataArray Name="Points" NumberOfComponents="3" format="ascii" type="Float32">20.806439333890459 1 2 25.908966608566711 2.7531032806455307 2 37.57514356415389 5.1600237676537937 2 64.662173150587037 1 2 88.514630261986426 5.4884539319167231 2 18.833652998439831 1 2 22.882055719963667 6.0512396541755349 2 36.210705033742435 6.5472345770572762 2 62.467451199483506 4.1876067982026806 2 87.970878056398959 1 2 19.255025660531281 5.499455176940355 2 26.823909308450421 6.652085921097953 2 35.184233551256007 1 2 64.437199697537721 4.0076019105868985 2 89.35306122452694 2.1126496109880306 2 16.930660256488274 1 2 22.915998892726044 1 2 35.253214452650198 4.8463473633326446 2 62.401420384152232 1 2 85.562769238972606 2.8573824993098671 2 21.791454788365559 2.5400147238036745 2 24.406997792880439 4.5275291106469346 2 37.240056764243882 3.2376588805121123 2 66.650459610482585 1 2 89.582374961551906 3.9046608328111208 2 19.856455397923387 2.5835038258776191 2 22.632450302924411 4.1418377751854614 2 38.07470439898951 7.2050488965223165 2 60.553192214937539 4.2978143491814009 2 87.623826468186195 2.8727942210106114 2 20.747249658319966 4.266241834384112 2 24.989488619942161 7.4456075325549405 2 36.969909074956881 1.2955364514448864 2 65.783925239178686 2.6830438288325205 2 90.571464994525869 1 2 15.605682637278161 2.3058224302036656 2 23.918526493788629 2.6468421424448345 2 35.332136451522935 2.9007412645472876 2 63.404805496973985 2.4835731678197428 2 86.174366564531113 1 2 </DataArray>
<DataArray Name="forces" NumberOfComponents="3" format="ascii" type="Float32">0.014118022685925921 -0.27909414902886409 0.0 -0.0072034784138020631 0.012440222629668221 0.0 -0.044101401610424334 0.053002789323049575 0.0 0.02248154488216049 -0.037878324353448782 0.0 -0.04996628154019956 0.077119382568484218 0.0 0.0072571406333144448 -0.096322605007698694 0.0 0.0096649745987496122 0.075675054508237624 0.0 -0.038454854821607029 0.075153542075887592 0.0 0.025332287657108123 0.03132451718771169 0.0 0.043024840052931279 -0.24320894950369051 0.0 -0.0064030570339081438 0.069942343890948888 0.0 0.010902607394193669 0.027641648980363507 0.0 -0.020949951839597612 -0.12290811473184807 0.0 0.010095715390865907 0.073632424302026808 0.0 -0.0040111152244307613 0.13971370235976716 0.0 0.0015485593984732315 -0.09841572228711587 0.0 0.00026409300030994648 -0.14039689596709004 0.0 0.04415254188821717 0.0263403731264382 0.0 -0.010687403176242893 -0.27782566489608651 0.0 0.022588577221157286 0.047992019658063656 0.0 0.014491779913861025 0.049477348559320983 0.0 -0.0014743777486881139 0.067101672528664544 0.0 -0.063595275693211828 0.048987951070401749 0.0 0.015966116165955058 -0.15878241348917899 0.0 0.044312587706576284 0.13198573620420578 0.0 0.0085815037909272585 0.03741890536427607 0.0 -0.0087357113056819591 0.071955444000937979 0.0 -0.023543936424429427 0.035030173290171232 0.0 0.015653851057057511 0.051814930654213089 0.0 -0.061157472190924982 0.040834897830768255 0.0 -0.016392885242982311 0.050972701336529355 0.0 -0.0013123313980409645 0.00057510980877777866 0.0 0.017713913386873233 0.018396116520787813 0.0 -0.02971385573445133 0.019996234719345255 0.0 -0.056084981208424763 -0.28289404093158571 0.0 0.010250118934605895 0.052022033098302861 0.0 -0.0046457278710332825 0.059308787487535736 0.0 -0.047665551075354695 0.028533197482999519 0.0 0.034166979448686415 0.026143671340801262 0.0 0.019162406430724088 -0.044474388251595977 0.0 </DataArray>
<DataArray Name="radii" format="ascii" type="Float32">1 1 1 1 1 1 1 1 1 1 1 1 1 1 1 1 1 1 1 1 1 1 1 1 1 1 1 1 1 1 1 1 1 1 1 1 1 1 1 1 </DataArray>
</PointData>
<CellData/>
</Piece>
</UnstructuredGrid>
</VTKFile>
