<?xml version="1.0" ?>
<VTKFile byte_order="LittleEndian" type="UnstructuredGrid" version="0.1">
<UnstructuredGrid>
<Piece NumberOfCells="0" NumberOfPoints="89">
<Points>
<DataArray NumberOfComponents="3" format="ascii" type="Float32">0 0 0 7.4308013364062706 1 2 18.423383818654784 3.7189528556546989 2 33.372841855230568 4.4166284132630347 2 42.886073993849052 4.0980023247322448 2 43.32512837144273 1 2 53.630329217695241 2.370786075891504 2 60.449792992224815 1 2 70.877444152059013 1 2 71.817560105687591 2.6332193770360117 2 78.734340884866924 1 2 96.491441364071378 4.7069197216258942 2 8.1069210465990196 6.5513615790420427 2 14.241795827819617 1 2 31.421159389054782 1 2 40.717304211634108 1 2 46.019287837004754 2.9050870140645024 2 58.533158849328373 1 2 59.42223402084727 6.3024127138347064 2 69.068349970365091 5.990613130098227 2 72.750351567480124 4.3138891928695697 2 78.39842268371531 7.3097489600647005 2 99.0 1 2 6.8379577142433003 4.0143882914975952 2 14.546040599144126 6.0822724349504735 2 29.026353038869139 6.2065751135405138 2 39.763975510001046 6.2313716143721978 2 44.152773136558146 2.6719470059627515 2 56.656832283118028 1 2 58.706555023673765 4.4560200655641804 2 68.669399729911561 1 2 70.777447029840872 4.2848456361829843 2 80.692907665283059 1 2 94.945422814379597 5.9554691913438571 2 10.398429340349605 3.8978226042553961 2 14.747984693863778 4.2151181776523874 2 33.108955238795154 2.6089758811408301 2 38.779276905873687 1 2 46.93963964416286 1 2 55.037983310643206 4.5169193577232054 2 62.778847296875661 7.4819213646536475 2 66.910288206820709 4.3343613278303481 2 71.735054995109181 6.1263375499130923 2 80.00482507851595 4.3059716966600812 2 98.469137584656423 4.497070255000625 2 5.7023690917153482 1 2 17.295925947832718 5.7172438070783347 2 31.621840346410011 5.2462083884727937 2 41.154085417898436 4.8733980388150604 2 42.241903192761356 2.2581654821597712 2 54.77512775461814 1 2 61.419710663128193 2.6017939953243614 2 69.833475988229225 2.5358319683437567 2 72.849968165848836 1 2 79.735481725768253 2.5413339494265403 2 94.617415334056474 4.0191555213768666 2 6.2159364040598168 5.8944877433067742 2 13.744622240627093 2.7070796684996004 2 31.480950122811159 3.3417114471158831 2 40.722042703328235 3.0290514048324462 2 44.813469252358175 4.5004021011851165 2 57.511368352846262 2.7830240941561741 2 61.439019093946534 6.0163841146864776 2 67.18303874928678 6.4691904544002998 2 73.843212090596012 5.92823982336588 2 78.418233683057821 5.3619519121978092 2 98.103630250359345 2.6795763884733677 2 5.3136877406469045 2.8159551743751168 2 13.839068412152756 7.8881245480743321 2 30.82534459237305 7.006740252122353 2 39.302945307782487 4.3666697649103297 2 45.147180884736443 1 2 55.580259176577904 2.6933148525862975 2 59.460542575642997 2.6691390516869724 2 67.726520410828954 2.5914291380478205 2 68.838692857736518 4.1272517270556408 2 81.662465458396213 2.7781389134674641 2 92.995616224760084 6.3620214742883023 2 8.6672038165948315 4.6844463441072017 2 16.597023208252004 3.9001176575227126 2 33.358355156765469 1 2 38.99294183405258 2.5959697082210607 2 47.905600022925313 2.7115013114286373 2 56.893284277572739 4.7267722552777593 2 63.555755055860992 5.7307491315199286 2 65.470246321415559 5.6115588370226659 2 70.272445556369505 7.5056271751668993 2 81.358815454684105 5.6319012951391931 2 99.0 6.3412334249510272 2 </DataArray>
</Points>
<Cells>
<DataArray Name="connectivity" format="ascii" type="Int32">0</DataArray>
<DataArray Name="offsets" format="ascii" type="Int32">0</DataArray>
<DataArray Name="types" format="ascii" type="UInt8">1</DataArray>
</Cells>
<PointData>
<DataArray Name="Points" NumberOfComponents="3" format="ascii" type="Float32">0 0 0 7.4308013364062706 1 2 18.423383818654784 3.7189528556546989 2 33.372841855230568 4.4166284132630347 2 42.886073993849052 4.0980023247322448 2 43.32512837144273 1 2 53.630329217695241 2.370786075891504 2 60.449792992224815 1 2 70.877444152059013 1 2 71.817560105687591 2.6332193770360117 2 78.734340884866924 1 2 96.491441364071378 4.7069197216258942 2 8.1069210465990196 6.5513615790420427 2 14.241795827819617 1 2 31.421159389054782 1 2 40.717304211634108 1 2 46.019287837004754 2.9050870140645024 2 58.533158849328373 1 2 59.42223402084727 6.3024127138347064 2 69.068349970365091 5.990613130098227 2 72.750351567480124 4.3138891928695697 2 78.39842268371531 7.3097489600647005 2 99.0 1 2 6.8379577142433003 4.0143882914975952 2 14.546040599144126 6.0822724349504735 2 29.026353038869139 6.2065751135405138 2 39.763975510001046 6.2313716143721978 2 44.152773136558146 2.6719470059627515 2 56.656832283118028 1 2 58.706555023673765 4.4560200655641804 2 68.669399729911561 1 2 70.777447029840872 4.2848456361829843 2 80.692907665283059 1 2 94.945422814379597 5.9554691913438571 2 10.398429340349605 3.8978226042553961 2 14.747984693863778 4.2151181776523874 2 33.108955238795154 2.6089758811408301 2 38.779276905873687 1 2 46.93963964416286 1 2 55.037983310643206 4.5169193577232054 2 62.778847296875661 7.4819213646536475 2 66.910288206820709 4.3343613278303481 2 71.735054995109181 6.1263375499130923 2 80.00482507851595 4.3059716966600812 2 98.469137584656423 4.497070255000625 2 5.7023690917153482 1 2 17.295925947832718 5.7172438070783347 2 31.621840346410011 5.2462083884727937 2 41.154085417898436 4.8733980388150604 2 42.241903192761356 2.2581654821597712 2 54.77512775461814 1 2 61.419710663128193 2.6017939953243614 2 69.833475988229225 2.5358319683437567 2 72.849968165848836 1 2 79.735481725768253 2.5413339494265403 2 94.617415334056474 4.0191555213768666 2 6.2159364040598168 5.8944877433067742 2 13.744622240627093 2.7070796684996004 2 31.480950122811159 3.3417114471158831 2 40.722042703328235 3.0290514048324462 2 44.813469252358175 4.5004021011851165 2 57.511368352846262 2.7830240941561741 2 61.439019093946534 6.0163841146864776 2 67.18303874928678 6.4691904544002998 2 73.843212090596012 5.92823982336588 2 78.418233683057821 5.3619519121978092 2 98.103630250359345 2.6795763884733677 2 5.3136877406469045 2.8159551743751168 2 13.839068412152756 7.8881245480743321 2 30.82534459237305 7.006740252122353 2 39.302945307782487 4.3666697649103297 2 45.147180884736443 1 2 55.580259176577904 2.6933148525862975 2 59.460542575642997 2.6691390516869724 2 67.726520410828954 2.5914291380478205 2 68.838692857736518 4.1272517270556408 2 81.662465458396213 2.7781389134674641 2 92.995616224760084 6.3620214742883023 2 8.6672038165948315 4.6844463441072017 2 16.597023208252004 3.9001176575227126 2 33.358355156765469 1 2 38.99294183405258 2.5959697082210607 2 47.905600022925313 2.7115013114286373 2 56.893284277572739 4.7267722552777593 2 63.555755055860992 5.7307491315199286 2 65.470246321415559 5.6115588370226659 2 70.272445556369505 7.5056271751668993 2 81.358815454684105 5.6319012951391931 2 99.0 6.3412334249510272 2 </DataArray>
<DataArray Name="forces" NumberOfComponents="3" format="ascii" type="Float32">0 0 0 0.012366966124299772 -0.024315173543807696 0.0 0.014864159111896008 0.059203266746942068 0.0 0.012330975127832981 0.12729628853680763 0.0 0.017047486766536772 0.067451167690385991 0.0 -0.014816355429256078 -0.38363847580297683 0.0 0.026757452968237908 0.12492612095499503 0.0 -0.0014681205333444761 -0.16314104842476185 0.0 -0.0047343077662069591 -0.22504823738544633 0.0 0.0095240280006082395 0.049497019395977747 0.0 -0.011931958313772251 -0.21963344109459121 0.0 0.01289453791467809 0.050091648257397287 0.0 -0.015201405310569219 0.050397179838668919 0.0 0.024116523504395554 -0.29092392053637717 0.0 -0.042284192213696677 -0.014962225329744868 0.0 0.043465252411811664 -0.012954428638455043 0.0 0.0059913731177356905 0.012492235933174176 0.0 -0.0030114019641029124 -0.083551353339394036 0.0 0.0071699739596514985 0.01868252191112714 0.0 0.028045902070594632 0.058561907249812785 0.0 0.022587171049976092 0.053053352330199817 0.0 -0.00067691838614404858 0.054858540040193103 0.0 0.3121436733507551 -0.084913991753823304 0.0 -0.016752755226123003 0.01711855382757304 0.0 0.0086208399557777798 0.065575490462181085 0.0 0.0084625465450203045 0.047664030916633668 0.0 0.020911464577135521 0.09338433519259158 0.0 7.3037946550821853e-05 0.040200002850639689 0.0 -0.013024132918661911 -0.023154573090720474 0.0 -0.012339655185157783 0.025357148242700793 0.0 0.034233766588825869 -0.19415619893663016 0.0 0.0097846891753849141 0.05667783693619366 0.0 -0.016190233267293491 -0.16486515686965281 0.0 0.0042821898090835767 0.043623397811213716 0.0 -0.010210130911274526 0.044419511960837682 0.0 -0.0055508659080808348 0.057156210868978236 0.0 0.10661556435346825 0.10875972071490758 0.0 0.05127487374274188 -0.42465107185776441 0.0 0.011162042101391555 -0.029255032766568569 0.0 -0.051676700339764847 0.0082115790899549533 0.0 -0.026070100680823428 0.090166191802796322 0.0 -0.037263000748118301 0.024534604542106694 0.0 0.0 0.0 0.0 0.036088537920057631 0.090106398550617292 0.0 0.018817878819041282 0.065833345631817849 0.0 0.0060655168268477812 -0.14041330126047866 0.0 -0.010484836519606088 0.051900181466391283 0.0 -0.018617496470816938 0.059708388452025959 0.0 0.0035576062011222348 0.057388986820194124 0.0 -0.00023442141140950223 0.07938254619627727 0.0 -0.033192599212913371 -0.28586286674596045 0.0 0.023388501151809765 0.047138848991588767 0.0 0.010657022459307171 0.06134011155216329 0.0 -0.0053526648237185448 -0.1426292663545351 0.0 -0.019243183607120844 0.06992323684420286 0.0 0.013314421028393982 0.03796123994342164 0.0 -0.0059368930648893078 0.017843029975884633 0.0 0.0073256811073460909 0.037119249159358214 0.0 0.026740760525040527 0.036502801723251994 0.0 -0.038790555887002587 0.051574772106761972 0.0 0.026789294047886113 0.029581121053555266 0.0 0.029493687324840291 0.028752816699865853 0.0 0.021140540552438258 0.049262304732080126 0.0 0.02303986860294209 0.053212706773054216 0.0 -0.0085890267268143045 0.087999634559613155 0.0 -0.013752277602593843 0.046094076562707628 0.0 0.020749347665915831 0.051269470551454532 0.0 -0.023655580491338753 0.03460918015487955 0.0 -0.022285950508724572 0.057814139549699675 0.0 0.00066751021539629071 0.076862310216163299 0.0 -0.0083402745134027526 0.096082326032454923 0.0 -0.0011839179793365628 -0.04704606388185776 0.0 0.039511742139626674 0.020849676776641918 0.0 0.022916195146660347 0.042218310418789852 0.0 -0.0055811545772463944 0.040098208604693361 0.0 -0.013913048705790187 0.057182654042424161 0.0 -0.0031990755053564954 0.023605846218831668 0.0 -0.0023282216675427087 0.019651022941011315 0.0 -0.021687681558857606 0.042524612195498947 0.0 0.004266918303688437 0.04965591665852314 0.0 -0.053836358933951889 -0.3783014281170492 0.0 -0.067175835755630908 0.090191336829615221 0.0 0.008922836543299173 0.036447061701009073 0.0 -0.032691046956619563 0.040333651505282078 0.0 -0.012620514460415969 0.084494988630594084 0.0 -0.0013737836856618363 0.085720916038805314 0.0 0.040605708636989334 0.051340393167695585 0.0 0.024746023609028847 0.11769368582717879 0.0 0.023465934590756833 0.080399022332063405 0.0 </DataArray>
<DataArray Name="radii" format="ascii" type="Float32">0 1 1 1 1 1 1 1 1 1 1 1 1 1 1 1 1 1 1 1 1 1 1 1 1 1 1 1 1 1 1 1 1 1 1 1 1 1 1 1 1 1 1 1 1 1 1 1 1 1 1 1 1 1 1 1 1 1 1 1 1 1 1 1 1 1 1 1 1 1 1 1 1 1 1 1 1 1 1 1 1 1 1 1 1 1 1 1 1 </DataArray>
</PointData>
<CellData/>
</Piece>
</UnstructuredGrid>
</VTKFile>
