<?xml version="1.0" ?>
<VTKFile byte_order="LittleEndian" type="UnstructuredGrid" version="0.1">
<UnstructuredGrid>
<Piece NumberOfCells="0" NumberOfPoints="45">
<Points>
<DataArray NumberOfComponents="3" format="ascii" type="Float32">0 0 0 6.1264051386088312 1.4 2 17.663684096538024 3.7822110412549521 2 32.492158434337419 3.8283825236846107 2 42.34909520698266 3.8572458843402506 2 42.515653897783963 1.4 2 53.845913161222335 1.4 2 60.518972019711562 1.4 2 69.998519207641309 1.4 2 72.247446766404181 1.4 2 78.869081901953535 1.4 2 95.870826017221731 3.6544466264212927 2 8.5929644194415626 5.8519330786020953 2 13.870998484014963 1.4 2 31.29979378680903 1.4 2 40.404438922264944 1.4 2 45.398390832914714 3.6208442180093749 2 58.192563593505014 1.4 2 60.311676902953451 5.7756983151243295 2 68.511442519295102 5.7047324774860453 2 72.660373409458344 5.2480828937014481 2 78.440176930878238 5.9749464926817408 2 98.6 1.4 2 7.2857366650579012 3.6024983751920914 2 14.075828152214505 5.8477278010195475 2 29.170340145804378 5.8969808722555426 2 39.729732500254848 3.8778678911973281 2 44.62357419540028 1.4 2 56.005311245949997 1.4 2 58.797750556751751 3.6662735726534303 2 67.823501733141569 1.4 2 70.573720105095475 3.7149808555373243 2 81.202321336631613 1.4 2 94.746287049913846 5.9553666895405231 2 9.9454836123696975 3.539958812840819 2 15.189870448550472 3.5437731889384168 2 33.608667718688238 1.4 2 38.241013116061239 1.4 2 46.90691624382184 1.4 2 56.047441874864056 3.9488477694875894 2 63.071035889440829 5.8479892999822924 2 66.994802248717434 3.6349342949459613 2 71.304339151109218 7.4869886355034776 2 79.889126571401874 3.7176291463142022 2 98.6 3.9489048199137726 2 </DataArray>
</Points>
<Cells>
<DataArray Name="connectivity" format="ascii" type="Int32">0</DataArray>
<DataArray Name="offsets" format="ascii" type="Int32">0</DataArray>
<DataArray Name="types" format="ascii" type="UInt8">1</DataArray>
</Cells>
<PointData>
<DataArray Name="Points" NumberOfComponents="3" format="ascii" type="Float32">0 0 0 6.1264051386088312 1.4 2 17.663684096538024 3.7822110412549521 2 32.492158434337419 3.8283825236846107 2 42.34909520698266 3.8572458843402506 2 42.515653897783963 1.4 2 53.845913161222335 1.4 2 60.518972019711562 1.4 2 69.998519207641309 1.4 2 72.247446766404181 1.4 2 78.869081901953535 1.4 2 95.870826017221731 3.6544466264212927 2 8.5929644194415626 5.8519330786020953 2 13.870998484014963 1.4 2 31.29979378680903 1.4 2 40.404438922264944 1.4 2 45.398390832914714 3.6208442180093749 2 58.192563593505014 1.4 2 60.311676902953451 5.7756983151243295 2 68.511442519295102 5.7047324774860453 2 72.660373409458344 5.2480828937014481 2 78.440176930878238 5.9749464926817408 2 98.6 1.4 2 7.2857366650579012 3.6024983751920914 2 14.075828152214505 5.8477278010195475 2 29.170340145804378 5.8969808722555426 2 39.729732500254848 3.8778678911973281 2 44.62357419540028 1.4 2 56.005311245949997 1.4 2 58.797750556751751 3.6662735726534303 2 67.823501733141569 1.4 2 70.573720105095475 3.7149808555373243 2 81.202321336631613 1.4 2 94.746287049913846 5.9553666895405231 2 9.9454836123696975 3.539958812840819 2 15.189870448550472 3.5437731889384168 2 33.608667718688238 1.4 2 38.241013116061239 1.4 2 46.90691624382184 1.4 2 56.047441874864056 3.9488477694875894 2 63.071035889440829 5.8479892999822924 2 66.994802248717434 3.6349342949459613 2 71.304339151109218 7.4869886355034776 2 79.889126571401874 3.7176291463142022 2 98.6 3.9489048199137726 2 </DataArray>
<DataArray Name="forces" NumberOfComponents="3" format="ascii" type="Float32">0 0 0 0.0047352983667407478 -0.29806856443680385 0.0 0.00088509511146902392 0.2451152663909523 0.0 -0.01606734270474458 0.24756520587050815 0.0 0.063743071057282705 0.22172796720586868 0.0 0.020280052444480168 -0.33133466807556688 0.0 0.021998883302341357 -0.44590982644851113 0.0 0.012128384991872521 -0.31313577932667763 0.0 -0.025645688894833304 -0.40356731063367607 0.0 -0.038381838597842943 0.0 0.0 -0.010918769989549396 -0.24798578858689677 0.0 -0.016696621124747985 0.27481562233877754 0.0 -0.023672853293735391 0.27890454079084304 0.0 -0.011970351476193575 -0.51035615244456345 0.0 -0.030802156961919569 -0.40240023885648457 0.0 0.0090060330613488393 -0.22402773678559382 0.0 -0.0011914691858113946 0.26959014359119648 0.0 0.02266854811791652 -0.4413212850277014 0.0 -0.015913669682485407 0.31991150257218809 0.0 0.13841635286751805 0.19293724674493262 0.0 -0.00098436437692787926 0.19263983855296885 0.0 0.034193335320765766 0.27710304706183908 0.0 0.74144311896090453 -0.25134374930566006 0.0 -0.0066359807775231844 0.26280653927511943 0.0 -0.015916512676271782 0.27158282913793891 0.0 -0.033417500515389331 0.2832532077076732 0.0 0.054839625948906207 0.27151671796528204 0.0 0.028819751429032148 -0.42300974580713763 0.0 0.024286785336258061 -0.25150697945070943 0.0 0.032995229806397013 0.27156869661600475 0.0 -0.026588120836292334 -0.39397057203199876 0.0 -0.06805680713680097 0.27758727033222463 0.0 0.0045964759409258191 -0.16639285229818074 0.0 -0.062889316445633545 0.27282598130411434 0.0 -0.0060914748952327069 0.27867658796635641 0.0 -0.0077263557482986356 0.26630580388652381 0.0 -0.013814779151830561 -0.15451736458049761 0.0 0.00067113882435421157 -0.44137436122754964 0.0 0.023451509726212127 -0.35718228417154085 0.0 0.029102458726779856 0.26104587583024247 0.0 -0.012385355082777161 0.28823389400425564 0.0 -0.03120222613950896 0.28446533123560164 0.0 -0.095088523566638286 0.15880404363529388 0.0 0.032248262181628573 0.25999493638831495 0.0 0.056639859332946081 0.25750831254605216 0.0 </DataArray>
<DataArray Name="radii" format="ascii" type="Float32">0 1.4 1.4 1.4 1.4 1.4 1.4 1.4 1.4 1.4 1.4 1.4 1.4 1.4 1.4 1.4 1.4 1.4 1.4 1.4 1.4 1.4 1.4 1.4 1.4 1.4 1.4 1.4 1.4 1.4 1.4 1.4 1.4 1.4 1.4 1.4 1.4 1.4 1.4 1.4 1.4 1.4 1.4 1.4 1.4 </DataArray>
</PointData>
<CellData/>
</Piece>
</UnstructuredGrid>
</VTKFile>
