<?xml version="1.0" ?>
<VTKFile byte_order="LittleEndian" type="UnstructuredGrid" version="0.1">
<UnstructuredGrid>
<Piece NumberOfCells="0" NumberOfPoints="64">
<Points>
<DataArray NumberOfComponents="3" format="ascii" type="Float32">1 2.3250389171698447 2 12.033481880800721 2.9541004435454612 2 28.001356002649899 4.5702578195785923 2 47.177987878831118 4.5162008117322294 2 52.412663819447097 1 2 74.828249667651463 1 2 84.385584483820139 1 2 92.270723748752459 1 2 4.3156473228799008 4.4571945452519968 2 12.283473254822409 1 2 28.746135358570989 1 2 47.939947551957239 6.3620174448095339 2 52.13601697399578 6.9108944051237575 2 76.816571470349203 4.3019259392511291 2 85.500612772631058 6.6398426098600272 2 96.145698796133942 2.7927458505985192 2 3.9480568898109905 1 2 12.152701763152768 6.7980874015590578 2 26.825717189780502 1 2 48.760472396648389 1 2 51.203623615700323 4.6661582048552317 2 74.856785253338828 4.2621879807927474 2 82.853514868187062 4.4041489833258947 2 92.336259496870369 4.4945775221996156 2 1.8642194328627049 3.9989635799185397 2 8.348039398181383 2.7431623173711763 2 29.856044266055299 4.3010625434703416 2 44.127816382001299 6.6912806220719458 2 53.115131053445531 4.1361845006379765 2 75.851635368561773 2.6194305306747117 2 84.797649116696405 4.7104096958017942 2 93.960271921650701 1 2 2.1392902003853878 1 2 12.221303140659703 4.8474363826079268 2 26.190251884785496 4.7852965911634344 2 49.140871450348662 4.7807649177051541 2 51.702659101395952 2.7691843736710311 2 73.802891391867703 2.649726183565499 2 82.538633885528881 1 2 93.182119310668213 2.731912648778219 2 3.8631938559480976 6.3509169133923313 2 10.589303139608623 1.9348477694138264 2 27.887518225185971 2.6676407165304465 2 45.986323901533886 6.0750807744620836 2 50.243242093670517 6.4114296580195127 2 77.822676271490323 2.6815271049139189 2 83.541812780339171 6.2578645020952459 2 97.268180592774783 1 2 3.3279415853844379 2.7598626004162941 2 10.161811619349997 6.5014105870710619 2 24.897485120409456 1 2 50.565764686038101 1.1023992215200005 2 49.799399458910145 2.9324143765424369 2 75.831409684891923 5.9863911270986847 2 83.605139683577477 2.6723086982845512 2 91.235660003823 2.8346446487393471 2 1 5.712245150256023 2 9.1840960595090646 1 2 29.953739520758702 2.3215160715743615 2 42.184999227875693 6.4874229347841936 2 53.802556205906626 5.9537076026069391 2 76.810729002301542 1 2 86.732550772485112 4.5328963543501155 2 95.596255712860966 1 2 </DataArray>
</Points>
<Cells>
<DataArray Name="connectivity" format="ascii" type="Int32">0</DataArray>
<DataArray Name="offsets" format="ascii" type="Int32">0</DataArray>
<DataArray Name="types" format="ascii" type="UInt8">1</DataArray>
</Cells>
<PointData>
<DataArray Name="Points" NumberOfComponents="3" format="ascii" type="Float32">1 2.3250389171698447 2 12.033481880800721 2.9541004435454612 2 28.001356002649899 4.5702578195785923 2 47.177987878831118 4.5162008117322294 2 52.412663819447097 1 2 74.828249667651463 1 2 84.385584483820139 1 2 92.270723748752459 1 2 4.3156473228799008 4.4571945452519968 2 12.283473254822409 1 2 28.746135358570989 1 2 47.939947551957239 6.3620174448095339 2 52.13601697399578 6.9108944051237575 2 76.816571470349203 4.3019259392511291 2 85.500612772631058 6.6398426098600272 2 96.145698796133942 2.7927458505985192 2 3.9480568898109905 1 2 12.152701763152768 6.7980874015590578 2 26.825717189780502 1 2 48.760472396648389 1 2 51.203623615700323 4.6661582048552317 2 74.856785253338828 4.2621879807927474 2 82.853514868187062 4.4041489833258947 2 92.336259496870369 4.4945775221996156 2 1.8642194328627049 3.9989635799185397 2 8.348039398181383 2.7431623173711763 2 29.856044266055299 4.3010625434703416 2 44.127816382001299 6.6912806220719458 2 53.115131053445531 4.1361845006379765 2 75.851635368561773 2.6194305306747117 2 84.797649116696405 4.7104096958017942 2 93.960271921650701 1 2 2.1392902003853878 1 2 12.221303140659703 4.8474363826079268 2 26.190251884785496 4.7852965911634344 2 49.140871450348662 4.7807649177051541 2 51.702659101395952 2.7691843736710311 2 73.802891391867703 2.649726183565499 2 82.538633885528881 1 2 93.182119310668213 2.731912648778219 2 3.8631938559480976 6.3509169133923313 2 10.589303139608623 1.9348477694138264 2 27.887518225185971 2.6676407165304465 2 45.986323901533886 6.0750807744620836 2 50.243242093670517 6.4114296580195127 2 77.822676271490323 2.6815271049139189 2 83.541812780339171 6.2578645020952459 2 97.268180592774783 1 2 3.3279415853844379 2.7598626004162941 2 10.161811619349997 6.5014105870710619 2 24.897485120409456 1 2 50.565764686038101 1.1023992215200005 2 49.799399458910145 2.9324143765424369 2 75.831409684891923 5.9863911270986847 2 83.605139683577477 2.6723086982845512 2 91.235660003823 2.8346446487393471 2 1 5.712245150256023 2 9.1840960595090646 1 2 29.953739520758702 2.3215160715743615 2 42.184999227875693 6.4874229347841936 2 53.802556205906626 5.9537076026069391 2 76.810729002301542 1 2 86.732550772485112 4.5328963543501155 2 95.596255712860966 1 2 </DataArray>
<DataArray Name="forces" NumberOfComponents="3" format="ascii" type="Float32">-0.22477199700645606 0.089043258255614224 0.0 0.0051594556093834676 0.049754860272304358 0.0 0.018132099123272169 0.031771806475877837 0.0 -0.0086643272819592887 0.027572089075049142 0.0 0.073688892383957497 -0.23075956058313388 0.0 -0.010232735884627326 -0.1174277230150168 0.0 0.0054758359066097162 -0.14100766594983413 0.0 -0.027642954818012155 -0.041210265535726057 0.0 -0.010578980775291714 0.050449052989660889 0.0 0.01948517394167372 -0.065833062640177423 0.0 -0.0050892753494257703 -0.27196615021560433 0.0 0.017607021562462102 0.019183511337834219 0.0 -0.029228627168583925 0.053970048852692708 0.0 -0.021221658772240512 0.046047404156619995 0.0 0.0043499789654731207 0.00086854386554878124 0.0 0.020383612391396438 0.043434922318793881 0.0 -0.0085137825194440547 -0.12784053750934443 0.0 -0.0015887289919521025 0.048023590277325438 0.0 -0.011870640785905759 -0.024118513633998369 0.0 0.025683405605130182 -0.09170644591915289 0.0 -0.0061558785781612906 0.03232367054693655 0.0 -0.025622988607873619 0.071932030886469517 0.0 -0.033296570635292705 0.035350507740958541 0.0 -0.020924796845295503 0.028443351526727497 0.0 0.028750433911972031 0.083437663105992044 0.0 -0.003162509370428189 0.037758824348325323 0.0 0.022545911114232299 0.05671087123142559 0.0 0.0073962769026980624 0.018528521959566908 0.0 -0.079968453027318837 0.12005115421347101 0.0 -0.034194686458829754 0.052020315467215979 0.0 -0.022552855700791852 0.0055114566547464772 0.0 -0.010350090487943997 -0.091578225663135879 0.0 -0.026054166219185021 -0.19482525601469294 0.0 0.011089795953478171 0.048747302381920231 0.0 0.01200107523535196 0.023300914817475135 0.0 -0.003069523395018852 0.0013414312807199444 0.0 0.0075883341560071677 0.025525062594186805 0.0 0.0094036880595051303 0.043210887003187842 0.0 -0.00074968059859068653 -0.02932480921825429 0.0 -0.0037311258726641094 0.039253722948721211 0.0 -0.012457585676140972 0.052194659825964142 0.0 0.016157120116490231 0.044073884019126153 0.0 -0.048633532781526018 0.031464764569277583 0.0 0.013789701526471496 0.042215710683737584 0.0 -0.029162899959210661 0.024018844808205098 0.0 -0.028817318085150992 0.03594400296510733 0.0 -0.001464725832291053 0.028200287390807245 0.0 0.0056051363871194027 -0.11623161975816146 0.0 -0.012099030506951453 0.042751925711966177 0.0 0.0 0.0 0.0 -0.011310273121397187 -0.076030729367331421 0.0 0.04663046080900983 0.0048380089986858679 0.0 0.0097004952294628827 -0.0011088070782952798 0.0 -0.003204676647784158 0.060334207652376272 0.0 0.0108687503021919 0.045745710382984368 0.0 -0.012750009349373034 0.025393470796585112 0.0 -0.036769009232079083 0.073811010817084716 0.0 0.017529500038414025 -0.23542280972203994 0.0 -0.010898248915203801 0.061576472331360418 0.0 0.00023931805431975928 0.068079736523727175 0.0 0.018766589593878211 0.098391238748852486 0.0 -0.018912494556020065 -0.13656923673064253 0.0 0.001490466599108925 0.10096851056953267 0.0 0.00083841028644066062 -0.1225526048492275 0.0 </DataArray>
<DataArray Name="radii" format="ascii" type="Float32">1 1 1 1 1 1 1 1 1 1 1 1 1 1 1 1 1 1 1 1 1 1 1 1 1 1 1 1 1 1 1 1 1 1 1 1 1 1 1 1 1 1 1 1 1 1 1 1 1 1 1 1 1 1 1 1 1 1 1 1 1 1 1 1 </DataArray>
</PointData>
<CellData/>
</Piece>
</UnstructuredGrid>
</VTKFile>
