<?xml version="1.0" ?>
<VTKFile byte_order="LittleEndian" type="UnstructuredGrid" version="0.1">
<UnstructuredGrid>
<Piece NumberOfCells="0" NumberOfPoints="20">
<Points>
<DataArray NumberOfComponents="3" format="ascii" type="Float32">21.349433227615481 1.5999999999999999 2 24.958521378657423 3.7549131176290724 2 37.405943170296979 3.4622956525423016 2 65.455827346427142 1.5999999999999999 2 89.11152850945183 4.2455406032125325 2 18.907092934012837 1.5999999999999999 2 22.5710054036157 4.339044638299054 2 37.36309888870116 6.1558893158965331 2 61.6508994824583 3.7502287106971917 2 87.86275983887721 1.5999999999999999 2 20.108999957806784 4.0771744360579776 2 26.186297295562696 6.284480712757607 2 35.752763671604384 1.5999999999999999 2 64.546449281499619 3.8864465607111023 2 90.025252593356711 1.5999999999999999 2 16.592225972840058 1.5999999999999999 2 23.674505472327549 1.5999999999999999 2 34.944055194525902 4.2674558198655781 2 63.03467037997541 1.5999999999999999 2 85.629833045774433 1.5999999999999999 2 </DataArray>
</Points>
<Cells>
<DataArray Name="connectivity" format="ascii" type="Int32">0</DataArray>
<DataArray Name="offsets" format="ascii" type="Int32">0</DataArray>
<DataArray Name="types" format="ascii" type="UInt8">1</DataArray>
</Cells>
<PointData>
<DataArray Name="Points" NumberOfComponents="3" format="ascii" type="Float32">21.349433227615481 1.5999999999999999 2 24.958521378657423 3.7549131176290724 2 37.405943170296979 3.4622956525423016 2 65.455827346427142 1.5999999999999999 2 89.11152850945183 4.2455406032125325 2 18.907092934012837 1.5999999999999999 2 22.5710054036157 4.339044638299054 2 37.36309888870116 6.1558893158965331 2 61.6508994824583 3.7502287106971917 2 87.86275983887721 1.5999999999999999 2 20.108999957806784 4.0771744360579776 2 26.186297295562696 6.284480712757607 2 35.752763671604384 1.5999999999999999 2 64.546449281499619 3.8864465607111023 2 90.025252593356711 1.5999999999999999 2 16.592225972840058 1.5999999999999999 2 23.674505472327549 1.5999999999999999 2 34.944055194525902 4.2674558198655781 2 63.03467037997541 1.5999999999999999 2 85.629833045774433 1.5999999999999999 2 </DataArray>
<DataArray Name="forces" NumberOfComponents="3" format="ascii" type="Float32">-0.0067981026802017563 -0.56957648326418409 0.0 -0.0080791477718392124 0.64726739693364044 0.0 0.02215548103436521 0.65182829317047219 0.0 -0.011857299605343319 -1.0353538567489515 0.0 0.12167201008674107 0.64595003924891514 0.0 -0.0082778641818769261 -0.53279346000117589 0.0 -0.011108959966241588 0.66859968843025575 0.0 0.00013742494957307005 0.65647906275559875 0.0 0.0057532460488550208 0.68044267796966185 0.0 -0.0016387212997097667 -0.48679930538382477 0.0 -0.014955331218438728 0.62386520465967799 0.0 -0.016830199474598795 0.67566652364469937 0.0 0.0040588860290537987 -0.927134193289469 0.0 -0.015618965470732049 0.67104156733456333 0.0 -0.011114038320022335 -0.37622266486799599 0.0 0.0079900863825426161 -0.9397043924711217 0.0 -0.021895670400551071 -0.82671409906415061 0.0 0.0066121137948552816 0.63166464209414064 0.0 -0.0021371164655518138 -0.92700175281228514 0.0 -0.020612896100599326 -0.87093568428661061 0.0 </DataArray>
<DataArray Name="radii" format="ascii" type="Float32">1.5999999999999999 1.5999999999999999 1.5999999999999999 1.5999999999999999 1.5999999999999999 1.5999999999999999 1.5999999999999999 1.5999999999999999 1.5999999999999999 1.5999999999999999 1.5999999999999999 1.5999999999999999 1.5999999999999999 1.5999999999999999 1.5999999999999999 1.5999999999999999 1.5999999999999999 1.5999999999999999 1.5999999999999999 1.5999999999999999 </DataArray>
</PointData>
<CellData/>
</Piece>
</UnstructuredGrid>
</VTKFile>
