<?xml version="1.0" ?>
<VTKFile byte_order="LittleEndian" type="UnstructuredGrid" version="0.1">
<UnstructuredGrid>
<Piece NumberOfCells="0" NumberOfPoints="64">
<Points>
<DataArray NumberOfComponents="3" format="ascii" type="Float32">1.2 2.802881615928309 2 11.633214465681124 2.87732460335351 2 27.929017578929145 4.9056517574046934 2 47.039777297039137 4.8517293926148968 2 52.670806077632427 1.2 2 74.827297277630763 1.2 2 84.548369270209335 1.2 2 92.118217541929482 1.2 2 4.3262255649485253 4.6271495925875392 2 12.642391554252413 1.2 2 28.937711765206444 1.2 2 48.054588286329036 6.9141445121690204 2 52.344131171745808 6.9455831241850987 2 76.781792689760081 4.6366959175487503 2 85.801994764838341 6.9444875617488728 2 95.8818321830054 3.049763260187786 2 3.6512539023747674 1.2 2 12.332373900723976 7.0560886945579622 2 26.918526111603718 1.2 2 48.865549768071311 1.2 2 51.066770799833819 4.9666841186111688 2 74.863960995318365 4.7593366787420734 2 82.522556848014034 4.8446494828410858 2 92.125471271730319 4.8480095089002253 2 2.0054866719335331 4.5854786816337025 2 8.4485240284726384 2.920802083350623 2 29.822035169111249 4.3474012405993276 2 43.93661157566769 6.8260957119546424 2 53.061481291706059 4.8628876125916358 2 75.899669489547506 2.8240231457008456 2 84.709429418561982 4.9423194461614681 2 93.846797324855032 1.2 2 1.5501558242675442 1.2 2 12.490238900361062 4.8630813830917914 2 26.068319652261323 5.0841982338907172 2 49.053861583477882 4.9288961535373907 2 51.81804518357491 3.0078765274666046 2 73.881897911837513 2.901870813347958 2 82.64226729907719 1.2 2 93.527348024226782 2.973206643785117 2 3.5106654329315039 6.6503740743417277 2 10.729734918259483 1.2 2 27.972896005588762 2.9483317238529545 2 45.99827276918721 6.8263199827631862 2 50.160045355019818 6.9816972110757343 2 77.966395018878259 3.1346354470675397 2 83.437994593838283 6.8492112637633937 2 97.090805719478055 1.2 2 3.2184416502132325 2.8658120659284338 2 10.255604071428555 6.2244330454309482 2 24.944262479112446 1.2 2 50.758490630982628 1.2 2 49.926214200778716 3.0304877158444476 2 76.232528531400874 6.6887751076304598 2 83.71728546538283 3.019545516400779 2 91.407662951681871 3.0223633957791773 2 1.2 6.4708703630172817 2 9.0808781169841755 1.2 2 30.004280395608319 2.4637735124655551 2 41.844811529209657 6.8998499517993483 2 54.599638764888191 6.6727388001183154 2 76.851466593127938 1.2 2 86.924274546298392 5.0103721794852829 2 95.422990472442976 1.2 2 </DataArray>
</Points>
<Cells>
<DataArray Name="connectivity" format="ascii" type="Int32">0</DataArray>
<DataArray Name="offsets" format="ascii" type="Int32">0</DataArray>
<DataArray Name="types" format="ascii" type="UInt8">1</DataArray>
</Cells>
<PointData>
<DataArray Name="Points" NumberOfComponents="3" format="ascii" type="Float32">1.2 2.802881615928309 2 11.633214465681124 2.87732460335351 2 27.929017578929145 4.9056517574046934 2 47.039777297039137 4.8517293926148968 2 52.670806077632427 1.2 2 74.827297277630763 1.2 2 84.548369270209335 1.2 2 92.118217541929482 1.2 2 4.3262255649485253 4.6271495925875392 2 12.642391554252413 1.2 2 28.937711765206444 1.2 2 48.054588286329036 6.9141445121690204 2 52.344131171745808 6.9455831241850987 2 76.781792689760081 4.6366959175487503 2 85.801994764838341 6.9444875617488728 2 95.8818321830054 3.049763260187786 2 3.6512539023747674 1.2 2 12.332373900723976 7.0560886945579622 2 26.918526111603718 1.2 2 48.865549768071311 1.2 2 51.066770799833819 4.9666841186111688 2 74.863960995318365 4.7593366787420734 2 82.522556848014034 4.8446494828410858 2 92.125471271730319 4.8480095089002253 2 2.0054866719335331 4.5854786816337025 2 8.4485240284726384 2.920802083350623 2 29.822035169111249 4.3474012405993276 2 43.93661157566769 6.8260957119546424 2 53.061481291706059 4.8628876125916358 2 75.899669489547506 2.8240231457008456 2 84.709429418561982 4.9423194461614681 2 93.846797324855032 1.2 2 1.5501558242675442 1.2 2 12.490238900361062 4.8630813830917914 2 26.068319652261323 5.0841982338907172 2 49.053861583477882 4.9288961535373907 2 51.81804518357491 3.0078765274666046 2 73.881897911837513 2.901870813347958 2 82.64226729907719 1.2 2 93.527348024226782 2.973206643785117 2 3.5106654329315039 6.6503740743417277 2 10.729734918259483 1.2 2 27.972896005588762 2.9483317238529545 2 45.99827276918721 6.8263199827631862 2 50.160045355019818 6.9816972110757343 2 77.966395018878259 3.1346354470675397 2 83.437994593838283 6.8492112637633937 2 97.090805719478055 1.2 2 3.2184416502132325 2.8658120659284338 2 10.255604071428555 6.2244330454309482 2 24.944262479112446 1.2 2 50.758490630982628 1.2 2 49.926214200778716 3.0304877158444476 2 76.232528531400874 6.6887751076304598 2 83.71728546538283 3.019545516400779 2 91.407662951681871 3.0223633957791773 2 1.2 6.4708703630172817 2 9.0808781169841755 1.2 2 30.004280395608319 2.4637735124655551 2 41.844811529209657 6.8998499517993483 2 54.599638764888191 6.6727388001183154 2 76.851466593127938 1.2 2 86.924274546298392 5.0103721794852829 2 95.422990472442976 1.2 2 </DataArray>
<DataArray Name="forces" NumberOfComponents="3" format="ascii" type="Float32">-0.73184141300835381 0.32840983666125512 0.0 -0.05782714648755094 0.17811441287713886 0.0 0.00067981779228661748 0.26194774054121328 0.0 0.0015456924961805285 0.25583824766074292 0.0 0.017776185483063367 -0.72560519395894585 0.0 0.0020105760151405416 -0.78177806380880699 0.0 0.030793542350009862 -0.54600892949297986 0.0 -0.02135546027230506 -0.52427906101519484 0.0 0.031207107903567288 0.21331559000219219 0.0 0.05641259658248568 -0.75554053690191125 0.0 -0.003795240356237406 -0.92870056734271889 0.0 0.012861341709645369 0.25682895502692488 0.0 0.051944046706720037 0.23506711060317878 0.0 0.01698929137174493 0.26321343794374508 0.0 0.0079675930384788957 0.24956486185695004 0.0 -0.054845016332948998 0.22427472546019978 0.0 -0.11570729668773212 -0.7238612663962366 0.0 0.0073317550703299178 0.23625689610980369 0.0 0.0056278018784527983 -0.58644917485641734 0.0 0.0097296900375486162 -0.6325463406622609 0.0 0.0048267041059196492 0.23126630695211436 0.0 0.0087105755949671432 0.27058730609987569 0.0 0.016035865375369662 0.26474147379408175 0.0 0.0076026948327049676 0.23404316072623696 0.0 0.070531557717986235 0.32508839660991862 0.0 -0.036757708971525693 0.21365564101157053 0.0 -0.0024746018350093324 0.22322684817205207 0.0 -0.020044444893892399 0.26605495604968271 0.0 0.038797026616114005 0.27051969086208483 0.0 -0.0087792458676020924 0.24011624096730172 0.0 0.014578703927779935 0.25095682342694992 0.0 -0.047806214479853115 -0.59098491717348722 0.0 -0.1677020113580952 -0.78857074372560487 0.0 -0.025106398948518308 0.20108152950528355 0.0 -0.029507501953286108 0.26854965670398701 0.0 0.0033162133654267845 0.24001002948944442 0.0 0.018247179262831037 0.23470395816366582 0.0 0.0044107511911703756 0.23761302562539788 0.0 0.027671880396732018 -0.64306120641551456 0.0 0.036562203649148139 0.22933178613693211 0.0 -0.00078007267563236227 0.2105979323685713 0.0 0.030419880703826618 -0.42944094631398361 0.0 -4.7653759836840948e-05 0.22409105022951617 0.0 -0.0088530305130168629 0.28593279575236696 0.0 0.03247148575097894 0.24930849146867753 0.0 -0.019401180431894857 0.19388429361115611 0.0 0.00311305674458719 0.27087372085584605 0.0 -0.023553416262903637 -0.45080302153306906 0.0 -0.044943813504297908 0.19989595121032333 0.0 0.0099589897953706041 0.22189651822368889 0.0 0.0038760740492426171 -0.61785063686929642 0.0 0.028167935957380819 -0.62277066469041742 0.0 0.0070110817949409765 0.20453566453031072 0.0 0.0087494732856550489 0.27516206100917667 0.0 0.0083378729569418275 0.23005522347903928 0.0 0.038996208360856405 0.2042317505355129 0.0 -0.21812678435272287 0.31762607325443998 0.0 0.0011821680621215691 -0.53622016027245378 0.0 -0.00056547613081903148 0.24163596045457761 0.0 -0.064006356707713902 0.24975960749779599 0.0 0.072514320787181175 0.26428031716460909 0.0 -0.0051967706955791254 -0.59528258158837866 0.0 0.034831909617779988 0.23943108149728434 0.0 -0.027221887336084327 -0.48252818450720453 0.0 </DataArray>
<DataArray Name="radii" format="ascii" type="Float32">1.2 1.2 1.2 1.2 1.2 1.2 1.2 1.2 1.2 1.2 1.2 1.2 1.2 1.2 1.2 1.2 1.2 1.2 1.2 1.2 1.2 1.2 1.2 1.2 1.2 1.2 1.2 1.2 1.2 1.2 1.2 1.2 1.2 1.2 1.2 1.2 1.2 1.2 1.2 1.2 1.2 1.2 1.2 1.2 1.2 1.2 1.2 1.2 1.2 1.2 1.2 1.2 1.2 1.2 1.2 1.2 1.2 1.2 1.2 1.2 1.2 1.2 1.2 1.2 </DataArray>
</PointData>
<CellData/>
</Piece>
</UnstructuredGrid>
</VTKFile>
