<?xml version="1.0" ?>
<VTKFile byte_order="LittleEndian" type="UnstructuredGrid" version="0.1">
<UnstructuredGrid>
<Piece NumberOfCells="0" NumberOfPoints="177">
<Points>
<DataArray NumberOfComponents="3" format="ascii" type="Float32">0 0 0 7.596248545481199 1.2 2 18.433637805197723 4.7948206231112183 2 33.607783036938336 6.3066216348397655 2 42.994851512707015 6.4491775595787777 2 42.51409375912575 1.2 2 54.090928102765872 3.4582928089692309 2 59.329893276847535 2.3088263464597141 2 71.339444473617974 1.2 2 72.836141853922882 2.8011615567538528 2 78.836432932048126 1.2 2 95.619980360947977 5.2770895968769072 2 7.5825233201658522 9.374852807670889 2 13.901468523415065 1.2 2 31.755600434229954 1.2 2 41.412247103760492 1.2 2 46.39797084668885 3.2708478332927706 2 58.275566234125613 1.2 2 58.727783583464124 9.1262183424604064 2 70.203038683828638 6.1719667472841149 2 73.033960995610059 4.6702723105769266 2 78.701854144683807 8.1749864446837801 2 98.8 1.2 2 6.7413843818582748 4.0475562330010391 2 13.855193588170099 5.650343903526398 2 29.932096833779219 7.2381982961257911 2 39.671458657732657 6.7954635655909073 2 45.080140291640433 3.1365154731523979 2 56.396107022250881 2.2078795212518414 2 58.656336924036516 5.382755952767357 2 69.203245153545751 1.2 2 70.999435080906395 4.2978383989181745 2 80.936006753500465 1.2 2 95.702647485509416 9.2292339064344606 2 9.6132749359407299 4.6965914642928128 2 14.849264519568878 4.4271801285648511 2 33.444806743794608 3.4130424951298668 2 38.963823361984488 1.2 2 47.334090038911292 1.2 2 55.03434401687808 4.6062772120733886 2 62.399183701311159 9.32296323776362 2 66.447069357481979 5.2453222389696528 2 71.631131970698632 7.6740833411213814 2 80.854962189071003 4.6108408954085265 2 98.8 5.1635629561642391 2 5.0859763839241117 1.2 2 17.198416673962765 7.4919828036931539 2 31.776613444084816 6.7055654101802116 2 40.371331112113779 4.8752987493983344 2 42.994239389358796 2.7343206611307131 2 53.476765399171292 1.2 2 61.134172656955236 3.5022069768705837 2 70.236872749835243 1.2 2 73.41020335484636 1.2 2 80.103041501171177 3.0162718579172823 2 93.782178628806705 6.2928274355454477 2 5.4918978321515652 5.6402854427872429 2 13.699990446020331 3.6994466971036513 2 31.207076455229508 2.8170437423176384 2 40.464085904552718 3.3450905577972767 2 44.188755701288422 4.8942164907146646 2 56.711392296811852 3.35115364748432 2 60.807629159131466 6.3314008444020118 2 67.709534973126267 8.3580597705670172 2 73.520136545916927 8.3029369572335199 2 77.917526632772081 6.1474077015510895 2 98.8 2.4096506180873218 2 5.6529016015622036 3.3853968215001888 2 15.614277642460332 8.3380894044246574 2 31.47624014296488 8.81348739218733 2 37.942231874436445 4.3967664591176199 2 44.51330416655027 1.2 2 55.911097442199676 1.2 2 59.598259205067286 3.4747702152030842 2 67.751181029473955 2.6525435292974118 2 67.959201999373434 4.0351316768147658 2 81.696397722723447 3.5450030512174648 2 92.006218765020364 7.7810965873723665 2 8.5151425049141629 5.7920590783583359 2 17.276117850068957 3.5408799494920125 2 33.040840893273959 2.171429529916383 2 39.056958170718396 3.3912952063427002 2 48.423497627023032 3.0550908118547042 2 57.295969003202856 6.0851825629616139 2 62.344236672170553 7.205507146022283 2 65.506973707720675 7.3743730872524349 2 70.913801186068341 9.8103696337446582 2 80.889854826032177 8.1872637963328696 2 98.8 7.0555093034351355 2 6.2709732093492638 1.2 2 18.38956116908863 2.9981046173274661 2 32.113655351915277 5.0571600848305174 2 41.786513858357843 3.992383594508381 2 43.552315988636273 1.2 2 55.2630749773842 2.9623169673280523 2 60.748318547072849 1.2 2 70.96197688446658 2.4289666507666179 2 71.931111278417291 3.3478909586156766 2 79.842256794126868 1.2 2 97.161837101267039 5.9674545184172052 2 8.761600237285144 7.6648707124417275 2 15.165621489847684 1.2 2 32.853201959031686 1.2 2 40.261888784326871 1.2 2 47.192139997117359 2.4697033766867915 2 59.508721322955942 1.2 2 57.266186875772988 7.8831952737333379 2 68.654010706958417 6.6430297234555393 2 71.625996894240586 5.5794236590687261 2 79.740004688277864 9.9425852400338606 2 97.870671625098495 1.2 2 6.9829635926342561 5.6573275959811902 2 14.240512870830948 7.200258826133644 2 29.325606208748713 9.1044441260491631 2 39.038990693771289 8.5581218190123867 2 43.967223780827375 3.2368102858276049 2 57.215661346987012 1.2 2 59.153957168902998 6.9898532988815028 2 68.044190419597911 1.2 2 69.853095611034959 3.2040790058231812 2 82.084785187557543 1.2 2 95.452162745821241 7.0838420340482671 2 10.826368763404929 3.7301800560366956 2 15.710669848299489 6.064444414082482 2 32.11212590888649 3.4177796643557778 2 39.932423344269552 2.1279332250156888 2 46.192085865860825 1.2 2 56.568623712302831 4.5771528834473054 2 64.351620163180186 8.7610799443784142 2 68.06219900778197 5.2689815907325439 2 73.099439251215315 6.3871625958373084 2 81.375631143371606 6.1696197404522177 2 97.408649894070976 4.1832962657991013 2 6.7721162242986219 2.4139365973408191 2 17.015330116582447 5.3987561553805161 2 30.126498090484212 5.7184502737602516 2 41.405697391259892 5.889854250010325 2 42.804480625814392 4.6577340527261955 2 54.773141330217236 1.2 2 60.975814512070095 2.2775713457569959 2 68.983022146315207 2.5163851856000132 2 72.37043281632566 1.2 2 79.151961664541616 2.9029127402336656 2 92.998547098591501 4.4592706097093906 2 6.8206705577938118 7.3854879813345624 2 13.990450107141585 2.4304731152261114 2 30.099426441978235 2.5585945862666879 2 41.72259118851391 2.5587923104628487 2 45.248203820563369 5.7962367778823642 2 58.120746860247785 4.038092230057873 2 60.622471155882181 8.3761324915942783 2 66.623968251349353 9.9498503853772213 2 75.355177560789272 8.7213870988013014 2 79.571407518683017 4.9479986216191714 2 98.8 3.5376135465056162 2 4.9014069628759067 2.3862469453454507 2 15.603455213402352 10.331360289361147 2 33.360240109979621 8.0957966746256016 2 39.00394679035653 5.1499183944498315 2 45.319345847531245 1.628101876966269 2 54.08672185873742 2.1685081033531679 2 57.98029466114609 2.6643773190088531 2 66.771853597179742 3.2031788087910522 2 69.512439455427497 4.5921243502691009 2 82.931074422833618 2.3475900274735095 2 93.765578986714516 8.4399630913600596 2 7.9860489187161692 4.0469420469860777 2 16.021535935009744 3.9930924080371333 2 34.070479313582339 1.2 2 38.30116142482796 2.4980393693193945 2 47.637713123187517 4.4707445797829211 2 55.703931447643349 6.1722207821791972 2 63.849531374194967 6.6022896086907714 2 66.76705235634256 6.718747257310028 2 69.740923604793977 8.1746660371161681 2 79.683618205237408 6.5774422569503388 2 97.358321317893797 8.0900370888233564 2 </DataArray>
</Points>
<Cells>
<DataArray Name="connectivity" format="ascii" type="Int32">0</DataArray>
<DataArray Name="offsets" format="ascii" type="Int32">0</DataArray>
<DataArray Name="types" format="ascii" type="UInt8">1</DataArray>
</Cells>
<PointData>
<DataArray Name="Points" NumberOfComponents="3" format="ascii" type="Float32">0 0 0 7.596248545481199 1.2 2 18.433637805197723 4.7948206231112183 2 33.607783036938336 6.3066216348397655 2 42.994851512707015 6.4491775595787777 2 42.51409375912575 1.2 2 54.090928102765872 3.4582928089692309 2 59.329893276847535 2.3088263464597141 2 71.339444473617974 1.2 2 72.836141853922882 2.8011615567538528 2 78.836432932048126 1.2 2 95.619980360947977 5.2770895968769072 2 7.5825233201658522 9.374852807670889 2 13.901468523415065 1.2 2 31.755600434229954 1.2 2 41.412247103760492 1.2 2 46.39797084668885 3.2708478332927706 2 58.275566234125613 1.2 2 58.727783583464124 9.1262183424604064 2 70.203038683828638 6.1719667472841149 2 73.033960995610059 4.6702723105769266 2 78.701854144683807 8.1749864446837801 2 98.8 1.2 2 6.7413843818582748 4.0475562330010391 2 13.855193588170099 5.650343903526398 2 29.932096833779219 7.2381982961257911 2 39.671458657732657 6.7954635655909073 2 45.080140291640433 3.1365154731523979 2 56.396107022250881 2.2078795212518414 2 58.656336924036516 5.382755952767357 2 69.203245153545751 1.2 2 70.999435080906395 4.2978383989181745 2 80.936006753500465 1.2 2 95.702647485509416 9.2292339064344606 2 9.6132749359407299 4.6965914642928128 2 14.849264519568878 4.4271801285648511 2 33.444806743794608 3.4130424951298668 2 38.963823361984488 1.2 2 47.334090038911292 1.2 2 55.03434401687808 4.6062772120733886 2 62.399183701311159 9.32296323776362 2 66.447069357481979 5.2453222389696528 2 71.631131970698632 7.6740833411213814 2 80.854962189071003 4.6108408954085265 2 98.8 5.1635629561642391 2 5.0859763839241117 1.2 2 17.198416673962765 7.4919828036931539 2 31.776613444084816 6.7055654101802116 2 40.371331112113779 4.8752987493983344 2 42.994239389358796 2.7343206611307131 2 53.476765399171292 1.2 2 61.134172656955236 3.5022069768705837 2 70.236872749835243 1.2 2 73.41020335484636 1.2 2 80.103041501171177 3.0162718579172823 2 93.782178628806705 6.2928274355454477 2 5.4918978321515652 5.6402854427872429 2 13.699990446020331 3.6994466971036513 2 31.207076455229508 2.8170437423176384 2 40.464085904552718 3.3450905577972767 2 44.188755701288422 4.8942164907146646 2 56.711392296811852 3.35115364748432 2 60.807629159131466 6.3314008444020118 2 67.709534973126267 8.3580597705670172 2 73.520136545916927 8.3029369572335199 2 77.917526632772081 6.1474077015510895 2 98.8 2.4096506180873218 2 5.6529016015622036 3.3853968215001888 2 15.614277642460332 8.3380894044246574 2 31.47624014296488 8.81348739218733 2 37.942231874436445 4.3967664591176199 2 44.51330416655027 1.2 2 55.911097442199676 1.2 2 59.598259205067286 3.4747702152030842 2 67.751181029473955 2.6525435292974118 2 67.959201999373434 4.0351316768147658 2 81.696397722723447 3.5450030512174648 2 92.006218765020364 7.7810965873723665 2 8.5151425049141629 5.7920590783583359 2 17.276117850068957 3.5408799494920125 2 33.040840893273959 2.171429529916383 2 39.056958170718396 3.3912952063427002 2 48.423497627023032 3.0550908118547042 2 57.295969003202856 6.0851825629616139 2 62.344236672170553 7.205507146022283 2 65.506973707720675 7.3743730872524349 2 70.913801186068341 9.8103696337446582 2 80.889854826032177 8.1872637963328696 2 98.8 7.0555093034351355 2 6.2709732093492638 1.2 2 18.38956116908863 2.9981046173274661 2 32.113655351915277 5.0571600848305174 2 41.786513858357843 3.992383594508381 2 43.552315988636273 1.2 2 55.2630749773842 2.9623169673280523 2 60.748318547072849 1.2 2 70.96197688446658 2.4289666507666179 2 71.931111278417291 3.3478909586156766 2 79.842256794126868 1.2 2 97.161837101267039 5.9674545184172052 2 8.761600237285144 7.6648707124417275 2 15.165621489847684 1.2 2 32.853201959031686 1.2 2 40.261888784326871 1.2 2 47.192139997117359 2.4697033766867915 2 59.508721322955942 1.2 2 57.266186875772988 7.8831952737333379 2 68.654010706958417 6.6430297234555393 2 71.625996894240586 5.5794236590687261 2 79.740004688277864 9.9425852400338606 2 97.870671625098495 1.2 2 6.9829635926342561 5.6573275959811902 2 14.240512870830948 7.200258826133644 2 29.325606208748713 9.1044441260491631 2 39.038990693771289 8.5581218190123867 2 43.967223780827375 3.2368102858276049 2 57.215661346987012 1.2 2 59.153957168902998 6.9898532988815028 2 68.044190419597911 1.2 2 69.853095611034959 3.2040790058231812 2 82.084785187557543 1.2 2 95.452162745821241 7.0838420340482671 2 10.826368763404929 3.7301800560366956 2 15.710669848299489 6.064444414082482 2 32.11212590888649 3.4177796643557778 2 39.932423344269552 2.1279332250156888 2 46.192085865860825 1.2 2 56.568623712302831 4.5771528834473054 2 64.351620163180186 8.7610799443784142 2 68.06219900778197 5.2689815907325439 2 73.099439251215315 6.3871625958373084 2 81.375631143371606 6.1696197404522177 2 97.408649894070976 4.1832962657991013 2 6.7721162242986219 2.4139365973408191 2 17.015330116582447 5.3987561553805161 2 30.126498090484212 5.7184502737602516 2 41.405697391259892 5.889854250010325 2 42.804480625814392 4.6577340527261955 2 54.773141330217236 1.2 2 60.975814512070095 2.2775713457569959 2 68.983022146315207 2.5163851856000132 2 72.37043281632566 1.2 2 79.151961664541616 2.9029127402336656 2 92.998547098591501 4.4592706097093906 2 6.8206705577938118 7.3854879813345624 2 13.990450107141585 2.4304731152261114 2 30.099426441978235 2.5585945862666879 2 41.72259118851391 2.5587923104628487 2 45.248203820563369 5.7962367778823642 2 58.120746860247785 4.038092230057873 2 60.622471155882181 8.3761324915942783 2 66.623968251349353 9.9498503853772213 2 75.355177560789272 8.7213870988013014 2 79.571407518683017 4.9479986216191714 2 98.8 3.5376135465056162 2 4.9014069628759067 2.3862469453454507 2 15.603455213402352 10.331360289361147 2 33.360240109979621 8.0957966746256016 2 39.00394679035653 5.1499183944498315 2 45.319345847531245 1.628101876966269 2 54.08672185873742 2.1685081033531679 2 57.98029466114609 2.6643773190088531 2 66.771853597179742 3.2031788087910522 2 69.512439455427497 4.5921243502691009 2 82.931074422833618 2.3475900274735095 2 93.765578986714516 8.4399630913600596 2 7.9860489187161692 4.0469420469860777 2 16.021535935009744 3.9930924080371333 2 34.070479313582339 1.2 2 38.30116142482796 2.4980393693193945 2 47.637713123187517 4.4707445797829211 2 55.703931447643349 6.1722207821791972 2 63.849531374194967 6.6022896086907714 2 66.76705235634256 6.718747257310028 2 69.740923604793977 8.1746660371161681 2 79.683618205237408 6.5774422569503388 2 97.358321317893797 8.0900370888233564 2 </DataArray>
<DataArray Name="forces" NumberOfComponents="3" format="ascii" type="Float32">0 0 0 0.0110400619567117 -1.8812900397043921 0.0 0.03157064847269897 0.45033393590855575 0.0 -0.029231383021301016 0.45485637878006391 0.0 -0.0096448161388335146 0.51269596702627906 0.0 -0.1377716866523428 -1.4668761735319999 0.0 -0.011685948217299593 0.40908562206287546 0.0 -0.15592216274986515 0.48029410700790276 0.0 0.0020252984282032038 -1.3812099720148492 0.0 -0.0061741829603858545 0.33191683880823258 0.0 0.0095385834921099533 -1.5132409557275914 0.0 -0.10069918456998384 0.42706970061936395 0.0 -0.086434008656768785 0.52038015793486458 0.0 0.0026480404757581733 -1.9224620228252411 0.0 0.0051226179427079632 -1.4461650127535162 0.0 -0.10175215111382657 -1.5179690630206766 0.0 -0.19597413815493503 0.36255692912066712 0.0 0.02283757067391623 -1.642590118615934 0.0 -0.013596741617172226 0.6693822241453925 0.0 0.0078566197180384156 0.51436178140818889 0.0 0.017539019915203014 0.41335883444424454 0.0 0.064214800790561022 0.46222255821594288 0.0 2.013880867805216 -1.3728225846377051 0.0 0.003844960010491949 0.4809351189339191 0.0 -0.013874127406017928 0.37549132307134964 0.0 0.022119757762481776 0.50922989632771887 0.0 0.026855648289009187 0.43882608544210383 0.0 0.015000997967266588 0.35609707476714225 0.0 -0.051336409017228801 0.41699789168852952 0.0 0.01618618726959159 0.44455928223126256 0.0 -0.020689152005143735 -1.7226183301707378 0.0 0.086036887768900727 0.43532303341296785 0.0 0.029083147045273858 -1.4975525918948709 0.0 -0.0095274693591227422 0.58033251621719995 0.0 0.0059122173847689146 0.42463213067794181 0.0 0.034989592371722944 0.57697345870079886 0.0 0.050576723236142471 0.44635174199506467 0.0 0.016334949721453274 -1.7837643462801229 0.0 0.057264071325065502 -1.6659559086854117 0.0 -0.0050603748594409415 0.47114038879051667 0.0 -0.0035804626214710478 0.56855056219699784 0.0 -0.042699600947103039 0.47812342737248281 0.0 -0.020151282319194774 0.4573238190910115 0.0 -0.03462684290934883 0.46936074065742928 0.0 1.0879742974465425 0.41480871741650094 0.0 -0.010110538249924944 -1.7474813533143796 0.0 0.1374203706859996 0.5801079935811676 0.0 0.031807761984168403 0.46586647496035216 0.0 0.031353601202094405 0.3674089953520302 0.0 0.12871587497939663 0.34020018487670384 0.0 -0.043587041082256972 -1.6932217968537597 0.0 0.09223971371226275 0.40148207959009707 0.0 -0.01612267265334727 -1.6124106584797993 0.0 0.056735865751492476 -1.5199405352105277 0.0 0.02709187004100426 0.40213030897265578 0.0 -0.035842870538554644 0.56625562103667737 0.0 -0.038654354021797288 0.52299507086914976 0.0 0.054810392421497635 0.39939656223327114 0.0 -0.026504097230716811 0.47314993467288075 0.0 -0.013864988769612813 0.41918621194300487 0.0 -0.099408124353985161 0.34949667463379408 0.0 -0.02521603622537727 0.43836159633206989 0.0 -0.039926936786209288 0.47931780055871442 0.0 -0.050859849714231797 0.47064373434578344 0.0 -0.069337935861428002 0.53372878946471736 0.0 -0.03439612678306514 0.4580082673564404 0.0 1.3806693408615547 0.42786245905047515 0.0 0.061988429361974351 0.43090245991028758 0.0 -0.060728022380524743 0.39142704190193445 0.0 -0.033996201709636853 0.51435632006592935 0.0 -0.013642765662632381 0.51296357142209814 0.0 -0.044172894295970933 -1.5295375407674126 0.0 0.013388811690421165 -1.8994432016207978 0.0 0.11389388101885745 0.4419878613208173 0.0 -0.016938280058792499 0.42215667470028861 0.0 0.045706983833769699 0.43923482578219758 0.0 -0.011232478187461536 0.49087610504602652 0.0 -0.058379654614644338 0.53233276475562763 0.0 0.037397013370822019 0.47951293510661053 0.0 0.078329594613863351 0.28260354676347521 0.0 0.0072019044051372383 0.48449642105482948 0.0 -0.037799525285865609 0.412114568246571 0.0 0.023494275882884719 0.45711317471562329 0.0 -0.014987215341484617 0.43963069393980986 0.0 0.00096245767437153074 0.52642378242589793 0.0 0.093212267299054297 0.59171071810455622 0.0 0.18009437148852458 0.45521852943623475 0.0 -0.034527334815011884 0.46663483629402042 0.0 0.87209626028509502 0.38316975711254136 0.0 -0.062055704248810073 -1.6910115901235641 0.0 -0.080516933134467006 0.36721845400576136 0.0 -0.066155420650261199 0.37214741146867031 0.0 0.053436872538049192 0.38508692348612772 0.0 -0.08583281721133762 -1.2378008795575282 0.0 -0.011038893182416798 0.50742779331565457 0.0 -0.041357341035294537 -1.8635994996010075 0.0 -0.0099336255562595954 0.41992930677650847 0.0 0.040465778945062945 0.44989721902195151 0.0 0.028530566271378038 -1.4710194050140468 0.0 -0.03594983142808799 0.43282787639876885 0.0 0.043392082909484153 0.54666677968390576 0.0 -0.086463302051831559 -2.0212001097504926 0.0 0.008076066854479258 -1.6508811093263074 0.0 -0.066257395160996033 -1.8815062636884869 0.0 -0.00025776322417320197 0.61359908078733594 0.0 0.049782639286652469 -1.9303584099843516 0.0 0.040697788405368134 0.46069897695209938 0.0 -0.035811738612618216 0.38452858896203351 0.0 0.021303012821928861 0.46005419683586224 0.0 0.012215070406561307 0.55789815626107764 0.0 -0.032102971757153598 -1.3770707720123638 0.0 -0.04028538614789548 0.46522525499767997 0.0 -0.17315280874326799 0.44319005931808514 0.0 -0.081855465105433844 0.49411896241265735 0.0 0.0010437782592331718 0.45378952133390071 0.0 0.067451872458071493 0.35889551824467125 0.0 0.033493104265340801 -1.7073310908389381 0.0 -0.048694077660481783 0.53101797100491455 0.0 -0.015508057589859903 -1.5608631991782353 0.0 0.026512252793758517 0.42917797176658878 0.0 0.032666943665160875 -1.6124691846232624 0.0 0.087126584481567265 0.51567547269970204 0.0 0.057908243146007954 0.4616824898383628 0.0 0.056875077698314958 0.63808370146002247 0.0 0.012966077217602456 0.36901203933299453 0.0 0.11341711148553679 0.4934420724985808 0.0 0.19299001239093316 -1.7290080622318607 0.0 0.020167943554020629 0.45754357345306795 0.0 0.017555897962236874 0.53632281884067168 0.0 0.032178380699512343 0.30690234123749205 0.0 -0.041927277899314455 0.43664881646346526 0.0 0.028213224893907207 0.50832183891935057 0.0 -0.016990774864504399 0.45339947483083348 0.0 -0.039115924870374352 0.38245850567106032 0.0 0.003104781837327264 0.44918678621364477 0.0 -0.01500765118639058 0.51452411073380222 0.0 -0.047591273832457093 0.42832142857430738 0.0 -0.037648827895281331 0.46265242400341111 0.0 -0.015811205751469104 -1.8358032875530634 0.0 -0.024579373475658861 0.46853648136743831 0.0 -0.014200608611640485 0.49040017528940105 0.0 0.032773714185957981 -1.4499862006783071 0.0 0.028270592397420871 0.45919696520385134 0.0 -0.024528764751944824 0.46193424949749318 0.0 0.062770087862381807 0.45508723619602787 0.0 0.04397417140018077 0.44925626924337092 0.0 -0.022028882784056736 0.40435004938816088 0.0 0.11652242747992773 0.52871108917876675 0.0 -0.018009307005982356 0.35993991542766168 0.0 0.018015799576436467 0.45199344562195454 0.0 -0.022041639019913128 0.4688631518308195 0.0 -0.26603960401694626 0.39490834763528443 0.0 -0.025690850456885211 0.44739214641629904 0.0 0.0087930303589581482 0.39666117618114705 0.0 1.2352761752758579 0.43379856891183416 0.0 -0.12248648713810448 0.50924750692100096 0.0 -0.0028014581337930658 0.40746896135857269 0.0 0.0043728465453509724 0.51294278721085895 0.0 0.029835631080344753 0.42932780546447002 0.0 0.027743782953873142 -0.027041681821404873 0.0 0.0095389976130351162 0.3879089637623212 0.0 -0.064561940534802492 0.45865158319594723 0.0 0.00095820514991340477 0.44271768858342708 0.0 0.13428488912320188 0.46843707285771574 0.0 -0.058504282755447723 0.52374006943947715 0.0 0.016613515361088599 0.46552171135744808 0.0 -0.049300137645248709 0.46594914603364612 0.0 0.03212246814531744 0.56247214653292932 0.0 -0.043901889751493617 -1.6377196642210874 0.0 -0.0096455177405228021 0.4788564868433326 0.0 -0.023335629173539929 0.47976478300153758 0.0 -0.017253244570302806 0.47397043037856773 0.0 0.055370774587726726 0.50171124105062181 0.0 0.03943565809783306 0.37539113717263983 0.0 -0.073227501621647928 0.52775114062628403 0.0 -0.037723258592257239 0.39348788605101692 0.0 0.053565163295958562 0.52596814907429168 0.0 </DataArray>
<DataArray Name="radii" format="ascii" type="Float32">0 1.2 1.2 1.2 1.2 1.2 1.2 1.2 1.2 1.2 1.2 1.2 1.2 1.2 1.2 1.2 1.2 1.2 1.2 1.2 1.2 1.2 1.2 1.2 1.2 1.2 1.2 1.2 1.2 1.2 1.2 1.2 1.2 1.2 1.2 1.2 1.2 1.2 1.2 1.2 1.2 1.2 1.2 1.2 1.2 1.2 1.2 1.2 1.2 1.2 1.2 1.2 1.2 1.2 1.2 1.2 1.2 1.2 1.2 1.2 1.2 1.2 1.2 1.2 1.2 1.2 1.2 1.2 1.2 1.2 1.2 1.2 1.2 1.2 1.2 1.2 1.2 1.2 1.2 1.2 1.2 1.2 1.2 1.2 1.2 1.2 1.2 1.2 1.2 1.2 1.2 1.2 1.2 1.2 1.2 1.2 1.2 1.2 1.2 1.2 1.2 1.2 1.2 1.2 1.2 1.2 1.2 1.2 1.2 1.2 1.2 1.2 1.2 1.2 1.2 1.2 1.2 1.2 1.2 1.2 1.2 1.2 1.2 1.2 1.2 1.2 1.2 1.2 1.2 1.2 1.2 1.2 1.2 1.2 1.2 1.2 1.2 1.2 1.2 1.2 1.2 1.2 1.2 1.2 1.2 1.2 1.2 1.2 1.2 1.2 1.2 1.2 1.2 1.2 1.2 1.2 1.2 1.2 1.2 1.2 1.2 1.2 1.2 1.2 1.2 1.2 1.2 1.2 1.2 1.2 1.2 1.2 1.2 1.2 1.2 1.2 1.2 </DataArray>
</PointData>
<CellData/>
</Piece>
</UnstructuredGrid>
</VTKFile>
