<?xml version="1.0" ?>
<VTKFile byte_order="LittleEndian" type="UnstructuredGrid" version="0.1">
<UnstructuredGrid>
<Piece NumberOfCells="0" NumberOfPoints="20">
<Points>
<DataArray NumberOfComponents="3" format="ascii" type="Float32">20.770487805778416 1 2 25.009042386600065 3.8853146487938339 2 36.889316216121657 2.6870328186829409 2 65.832985734617665 1 2 88.869819570948579 2.3381828504970938 2 18.474383550409058 1 2 22.754505848289408 1.9745335527026446 2 37.486079501721917 4.615236002487686 2 62.057556017862339 1.8844950429615852 2 87.120096542484802 1.4312020017009297 2 21.011335574222603 2.9781461763044508 2 26.956787307178505 4.3395548963152981 2 35.954477651137758 1 2 64.803721080490519 2.7365216987487946 2 90.363548222282873 1 2 17.211224109698602 2.5505606169988106 2 24.505619785318483 1 2 35.469130940902318 4.4805225412525589 2 63.800447283134289 1 2 85.252809348533575 1 2 </DataArray>
</Points>
<Cells>
<DataArray Name="connectivity" format="ascii" type="Int32">0</DataArray>
<DataArray Name="offsets" format="ascii" type="Int32">0</DataArray>
<DataArray Name="types" format="ascii" type="UInt8">1</DataArray>
</Cells>
<PointData>
<DataArray Name="Points" NumberOfComponents="3" format="ascii" type="Float32">20.770487805778416 1 2 25.009042386600065 3.8853146487938339 2 36.889316216121657 2.6870328186829409 2 65.832985734617665 1 2 88.869819570948579 2.3381828504970938 2 18.474383550409058 1 2 22.754505848289408 1.9745335527026446 2 37.486079501721917 4.615236002487686 2 62.057556017862339 1.8844950429615852 2 87.120096542484802 1.4312020017009297 2 21.011335574222603 2.9781461763044508 2 26.956787307178505 4.3395548963152981 2 35.954477651137758 1 2 64.803721080490519 2.7365216987487946 2 90.363548222282873 1 2 17.211224109698602 2.5505606169988106 2 24.505619785318483 1 2 35.469130940902318 4.4805225412525589 2 63.800447283134289 1 2 85.252809348533575 1 2 </DataArray>
<DataArray Name="forces" NumberOfComponents="3" format="ascii" type="Float32">-0.0020308074219676018 -0.016969766643373782 0.0 0.0 0.0 0.0 0.0032137824484166459 -0.0085870511448340597 0.0 0.023954046221312808 0.0 0.0 0.0070452389098474011 0.050447396417800321 0.0 0.013404844127533738 -0.016861911851648821 0.0 -0.010828094183037939 0.0061302592141999519 0.0 0.0092433345076084351 0.03107497453891345 0.0 0.012972130407523375 0.016685161508208854 0.0 0.019597930603714377 -0.0051433439271506391 0.0 0.0020308074219676018 0.016969766643373782 0.0 0.0 0.0 0.0 0.042181891736961866 -0.022547256161482097 0.0 0.0063803780265543559 0.011415241324634147 0.0 0.024888796139463508 -0.030571418014964168 0.0 -0.011426093789583489 0.011200852814017557 0.0 0.0058743786019284754 -0.0061302592141999519 0.0 0.0 0.0 0.0 -0.019917329030506633 -0.016524328977568038 0.0 0.032228050408047139 -0.042087812712415074 0.0 </DataArray>
<DataArray Name="radii" format="ascii" type="Float32">1 1 1 1 1 1 1 1 1 1 1 1 1 1 1 1 1 1 1 1 </DataArray>
</PointData>
<CellData/>
</Piece>
</UnstructuredGrid>
</VTKFile>
