<?xml version="1.0" ?>
<VTKFile byte_order="LittleEndian" type="UnstructuredGrid" version="0.1">
<UnstructuredGrid>
<Piece NumberOfCells="0" NumberOfPoints="45">
<Points>
<DataArray NumberOfComponents="3" format="ascii" type="Float32">0 0 0 6.0380186130482265 1.5999999999999999 2 17.635323025914097 4.3814727637094419 2 32.470379705746687 4.4059546599144044 2 42.442914195239752 3.850967751853958 2 42.524621359686982 1.5999999999999999 2 53.915216330621845 1.5999999999999999 2 60.51651024580179 1.5999999999999999 2 70.051769912505421 1.5999999999999999 2 72.24559801316633 1.5999999999999999 2 78.944225509860587 1.5999999999999999 2 95.519131608058899 3.8103146825236025 2 8.2128060447474063 6.1591578006038636 2 13.876034577234117 1.5999999999999999 2 31.351030548038732 1.5999999999999999 2 40.399717902871053 1.5999999999999999 2 45.282344244058699 3.8168427444363715 2 58.146111821509081 1.5999999999999999 2 60.082461070104252 6.1643210488751565 2 68.240308835981793 6.1046413298689739 2 72.558568908632424 4.3764667470050274 2 78.492327879653459 6.3672488320162079 2 98.4 1.5999999999999999 2 6.9639956693642242 3.7513084010849198 2 14.451530350044978 6.0825191034055788 2 29.403505650644593 6.1606999858141185 2 39.869364942169263 4.3608058794571996 2 44.62321322599648 1.5999999999999999 2 56.01908123978712 1.5999999999999999 2 58.730973171047339 3.8086189004382502 2 67.871368538180761 1.5999999999999999 2 70.051758090733699 3.8348773372260414 2 81.278966002456229 1.5999999999999999 2 94.504747655232464 6.2124555621394117 2 9.790869407521285 3.7105655927817733 2 15.289151155995862 3.5286807620377285 2 33.546891695217262 1.5999999999999999 2 38.314485211703222 1.5999999999999999 2 46.947255950176057 1.5999999999999999 2 56.128178183680085 4.3272922800366826 2 63.194346593220068 6.2063994241436653 2 67.185135807535161 3.7451087219832808 2 71.150026091329764 6.8176603359589896 2 80.173692994727162 4.0162623687019003 2 98.4 4.2036533016193003 2 </DataArray>
</Points>
<Cells>
<DataArray Name="connectivity" format="ascii" type="Int32">0</DataArray>
<DataArray Name="offsets" format="ascii" type="Int32">0</DataArray>
<DataArray Name="types" format="ascii" type="UInt8">1</DataArray>
</Cells>
<PointData>
<DataArray Name="Points" NumberOfComponents="3" format="ascii" type="Float32">0 0 0 6.0380186130482265 1.5999999999999999 2 17.635323025914097 4.3814727637094419 2 32.470379705746687 4.4059546599144044 2 42.442914195239752 3.850967751853958 2 42.524621359686982 1.5999999999999999 2 53.915216330621845 1.5999999999999999 2 60.51651024580179 1.5999999999999999 2 70.051769912505421 1.5999999999999999 2 72.24559801316633 1.5999999999999999 2 78.944225509860587 1.5999999999999999 2 95.519131608058899 3.8103146825236025 2 8.2128060447474063 6.1591578006038636 2 13.876034577234117 1.5999999999999999 2 31.351030548038732 1.5999999999999999 2 40.399717902871053 1.5999999999999999 2 45.282344244058699 3.8168427444363715 2 58.146111821509081 1.5999999999999999 2 60.082461070104252 6.1643210488751565 2 68.240308835981793 6.1046413298689739 2 72.558568908632424 4.3764667470050274 2 78.492327879653459 6.3672488320162079 2 98.4 1.5999999999999999 2 6.9639956693642242 3.7513084010849198 2 14.451530350044978 6.0825191034055788 2 29.403505650644593 6.1606999858141185 2 39.869364942169263 4.3608058794571996 2 44.62321322599648 1.5999999999999999 2 56.01908123978712 1.5999999999999999 2 58.730973171047339 3.8086189004382502 2 67.871368538180761 1.5999999999999999 2 70.051758090733699 3.8348773372260414 2 81.278966002456229 1.5999999999999999 2 94.504747655232464 6.2124555621394117 2 9.790869407521285 3.7105655927817733 2 15.289151155995862 3.5286807620377285 2 33.546891695217262 1.5999999999999999 2 38.314485211703222 1.5999999999999999 2 46.947255950176057 1.5999999999999999 2 56.128178183680085 4.3272922800366826 2 63.194346593220068 6.2063994241436653 2 67.185135807535161 3.7451087219832808 2 71.150026091329764 6.8176603359589896 2 80.173692994727162 4.0162623687019003 2 98.4 4.2036533016193003 2 </DataArray>
<DataArray Name="forces" NumberOfComponents="3" format="ascii" type="Float32">0 0 0 -0.0098219887745689682 -0.84148792548242879 0.0 -0.01931411318302774 0.67342554541730082 0.0 -0.0086927869982443839 0.66062199819058409 0.0 0.019596602352730724 0.63635690070493067 0.0 0.0077852272920124754 -0.94713664028902722 0.0 0.0015312883106226305 -0.88418995194078942 0.0 0.015405299629828839 -0.96240538507958973 0.0 0.01618105541285584 -0.97166054466962315 0.0 -0.052339375708803572 -0.43557303177967521 0.0 0.028409903446417251 -0.76600564608111166 0.0 -0.058358019534973576 0.66151245263834169 0.0 -0.030498532422053887 0.67631145405165483 0.0 -0.018493349670347381 -1.2741024871866578 0.0 -0.0087183116422480111 -0.96909616951376076 0.0 0.0052427568759025878 -0.50233551250981834 0.0 0.0096388300951117112 0.67379971335458122 0.0 0.0089723844633483041 -0.88603566236149212 0.0 -0.022126090783875507 0.69049388992180172 0.0 -0.13354786115965356 0.74694129197163472 0.0 -0.0050245485069710383 0.35376465267683282 0.0 0.021333065127409262 0.68823793298044655 0.0 1.2300898160437836 -0.59666672607813132 0.0 -0.025913083462186459 0.65247798332759577 0.0 0.026322230264854501 0.64264629060902423 0.0 0.020607911396805484 0.65660869862543192 0.0 0.015107608995494955 0.65286334473681484 0.0 0.018828203688026734 -0.90076375267228959 0.0 0.0042812526095296968 -0.47354499771326358 0.0 0.023597885785692441 0.64485823692412303 0.0 -0.00087915061202786804 -0.95955455077845753 0.0 -0.10252780049546378 0.71394009116279955 0.0 0.0092485256525517978 -0.71128874487822324 0.0 -0.1110245238705225 0.66194202728249396 0.0 -0.02242046986826346 0.67606566291853498 0.0 -0.010742352524083565 0.61282348521846142 0.0 -0.0081670762639025757 -0.3513265932451145 0.0 0.0026918206901311754 -1.0428549902285937 0.0 0.011215582981398464 -0.96854653680994418 0.0 0.02121374903033324 0.67419212661763417 0.0 -0.012111939086893758 0.70122040361109328 0.0 -0.035834952638747808 0.64726568480453595 0.0 0.010109492620240357 0.38334995841210057 0.0 0.10941597301194234 0.69282333770226923 0.0 0.29406933553792891 0.63708666274549797 0.0 </DataArray>
<DataArray Name="radii" format="ascii" type="Float32">0 1.5999999999999999 1.5999999999999999 1.5999999999999999 1.5999999999999999 1.5999999999999999 1.5999999999999999 1.5999999999999999 1.5999999999999999 1.5999999999999999 1.5999999999999999 1.5999999999999999 1.5999999999999999 1.5999999999999999 1.5999999999999999 1.5999999999999999 1.5999999999999999 1.5999999999999999 1.5999999999999999 1.5999999999999999 1.5999999999999999 1.5999999999999999 1.5999999999999999 1.5999999999999999 1.5999999999999999 1.5999999999999999 1.5999999999999999 1.5999999999999999 1.5999999999999999 1.5999999999999999 1.5999999999999999 1.5999999999999999 1.5999999999999999 1.5999999999999999 1.5999999999999999 1.5999999999999999 1.5999999999999999 1.5999999999999999 1.5999999999999999 1.5999999999999999 1.5999999999999999 1.5999999999999999 1.5999999999999999 1.5999999999999999 1.5999999999999999 </DataArray>
</PointData>
<CellData/>
</Piece>
</UnstructuredGrid>
</VTKFile>
