<?xml version="1.0" ?>
<VTKFile byte_order="LittleEndian" type="UnstructuredGrid" version="0.1">
<UnstructuredGrid>
<Piece NumberOfCells="0" NumberOfPoints="177">
<Points>
<DataArray NumberOfComponents="3" format="ascii" type="Float32">0 0 0 7.5915385201799754 1 2 18.406680201878839 4.7221821190544402 2 33.663235403260963 6.2871900209090192 2 43.164424414807272 6.3182021813972504 2 42.78133300621645 1 2 54.01089782602957 3.579423486212379 2 59.634453681003258 2.1874068805083149 2 71.485042207096171 1 2 72.935476419694695 3.0094973561039762 2 78.911224780253121 1 2 95.824923110335405 5.3836102201683955 2 7.7560048569989268 9.0306963246283019 2 13.870405490098673 1 2 31.600519907872041 1.7259318722992589 2 41.541245564570289 1 2 46.577763592970584 3.3466768776982065 2 58.22277838554168 1 2 58.790735532951238 8.4522964902500277 2 70.06253778385927 6.1295159794607956 2 72.925850035469963 4.8240140122054926 2 78.588073922179376 8.0786080723056504 2 99.0 1 2 6.6556766636061546 4.0863045325911163 2 13.929866959927255 5.7224859141283506 2 29.912360102755702 7.185941985922776 2 39.668037062233992 6.7986425412927698 2 45.089584905852966 3.2045235020615719 2 56.5374865035675 2.1249852457481402 2 58.621460548295552 5.5438062326800548 2 69.116121124007876 1 2 70.7640963326063 4.4205831490072978 2 80.619947484958132 1 2 95.708535361129492 8.7446346096561225 2 9.6140327792701079 4.8394219739065818 2 14.758232531676697 4.2016618116724462 2 33.399696510981315 3.4368265703783298 2 38.995356270924695 1 2 47.18231989746446 1 2 55.06442423734633 4.677788662655229 2 62.334238579849568 8.9849249836728102 2 66.518009728748922 5.2168217803019825 2 71.565517185531931 7.3894117130209276 2 80.977363333273928 4.5848621232781834 2 99.0 5.3008410183782226 2 5.1003100769853589 1 2 16.85178809122981 7.1673252575785504 2 31.741632314159716 6.7360277972360469 2 40.299208038330647 5.0168382167855041 2 42.672621711176838 2.8042033352466307 2 53.58389434333845 1 2 61.01496484529828 3.5590025618666177 2 70.254336874705103 1 2 73.174286289764183 1 2 80.124951634166706 3.2856580144920935 2 93.984525564190605 5.8674795119054926 2 5.5788368535105333 5.6246109365227062 2 13.615602187690843 3.8345203345295977 2 31.31893770631152 2.8604146770046688 2 40.495055888163336 3.4688189369400422 2 44.42835387656757 4.9960947259963806 2 56.748744916291713 3.3871802418282493 2 60.884225409708861 6.448448174046689 2 67.744178657352734 8.2782030269803162 2 73.64870919618987 8.1035590369310153 2 78.038432465212367 6.1990868869251035 2 98.412215728794649 2.4743340901170638 2 5.4636083459092175 3.4946209058698203 2 15.679243849105413 8.4799628071279951 2 31.504627565907693 8.5415979055755109 2 37.89534824611134 4.3143927758222453 2 44.336659117610168 1 2 55.928717498902515 1 2 59.49966851313976 3.4870639714137344 2 67.854546141253067 2.6068255599584234 2 67.996625686138913 4.0333184459706484 2 81.793810156156809 3.5589195142223375 2 92.22655508765709 7.547311506416146 2 8.5235636242373669 5.8357448941798902 2 17.235149196149909 3.7151335693791561 2 33.027338578863628 2.1544377475446677 2 39.066351540161918 3.5644582511218905 2 48.312261762943564 2.9180465342633655 2 57.366385772937385 6.0880271284087657 2 62.325154065442817 6.8890309506711356 2 65.352440111646615 7.0562049656371917 2 70.526134099433747 9.7242988252800711 2 80.971509474231155 8.026832685913206 2 99.0 7.1245772011852848 2 6.3887535061558411 1 2 18.511515068853914 2.9444089632580566 2 32.246573300955582 5.242564117793191 2 41.723097311000359 4.1502621450493518 2 43.809383257872319 2.0542763578989365 2 55.294125727988394 2.8305003134382307 2 60.830338097221485 1 2 70.830492907904016 2.4453132579441936 2 71.737527086758732 3.6061137485428851 2 79.782062842929065 1.7221217291609219 2 97.375506901047927 6.0887780224844068 2 8.5858186160908403 7.4870480282482399 2 15.177624638815709 1 2 32.607707071989985 1 2 40.325181513283169 1 2 47.250329568785553 2.1976750519483446 2 59.365188883664658 1 2 57.132161669227187 7.8108665661273085 2 68.676436452276079 6.9470499148073515 2 71.618980898264567 5.60102220006649 2 79.686776918394557 9.5722975663094712 2 97.936291427962999 1 2 7.0820283247668767 5.6046121582706014 2 14.512070072093604 7.2357431599081661 2 29.603794551346596 8.9069239386484611 2 38.804009382766971 8.413885279572284 2 43.962811802862028 3.632273413482157 2 57.234988220629944 1 2 59.376033632891577 6.8240468987000487 2 67.994841888749008 1 2 69.742395848455075 3.2302753355420921 2 81.872957255552748 1 2 95.15864249372521 7.0427517658846854 2 10.699935891105794 3.7525400342425552 2 15.559645724293325 5.7808578642109527 2 32.195422024178015 3.7371681079427632 2 39.83323036396532 2.1950867847681321 2 45.822467830763202 1 2 56.522887141320687 4.6722762813698688 2 64.12360342483457 8.4546070567435159 2 68.085632948854922 5.5900375916685432 2 73.061662759542202 6.522199716890742 2 81.292076555180401 6.1066255159712366 2 97.484094791769337 4.2967176470989576 2 6.769184504321748 2.5195523933535444 2 17.042587122326228 5.4307359606816492 2 30.181247348226456 5.6657853273823653 2 41.52449882791737 5.9630901212819261 2 42.87850510627942 4.6766083441561959 2 54.89264179312886 1 2 61.005168488157295 2.2563826471958208 2 69.049552306379567 2.3529609267810723 2 72.22782581049934 1.8366364232774757 2 78.895289593085238 2.9082231785524564 2 93.029432834936387 4.5158578052534564 2 6.7166632978492915 7.3028594564317828 2 13.86874275018765 2.4036907631497715 2 30.044186885483054 2.5981961119028791 2 41.487794865509585 2.3576834456783864 2 45.236901979339144 6.1121763595609115 2 58.141967758133227 4.2257986852561258 2 60.650343217352649 8.2661320825093938 2 67.122925315880337 9.857963094471117 2 75.380459426446123 8.6735320457379625 2 79.61472487831962 5.137097674532038 2 99.0 3.6075297632966108 2 5.1572648905938099 2.2593498315624743 2 15.629103823224646 10.274301405917447 2 33.278403597516345 7.9474250629754568 2 38.946139780619603 5.3007301912376521 2 45.573174489485801 2.0483009357832769 2 53.937984267341399 2.2064381546940881 2 58.137111025519296 2.5796570464911248 2 66.690967406693431 3.33812706713947 2 69.323618503490536 4.6376695638229908 2 83.030732899634074 2.1823767083105299 2 93.817524523821049 8.4627942876630158 2 8.0611338838164066 4.0960183545207265 2 15.981152241526956 3.981204953507488 2 34.052344865380206 1 2 38.195399288190082 2.4477283108819163 2 47.663720408920135 4.4988797972702708 2 55.820482330328211 6.2810887829596425 2 63.815099043050068 6.6399374341409576 2 66.846014062505489 6.8386678781750279 2 69.943858263772526 8.0246796179850595 2 79.718574729098094 6.7755854617074851 2 97.323692161432888 7.8784950502507467 2 </DataArray>
</Points>
<Cells>
<DataArray Name="connectivity" format="ascii" type="Int32">0</DataArray>
<DataArray Name="offsets" format="ascii" type="Int32">0</DataArray>
<DataArray Name="types" format="ascii" type="UInt8">1</DataArray>
</Cells>
<PointData>
<DataArray Name="Points" NumberOfComponents="3" format="ascii" type="Float32">0 0 0 7.5915385201799754 1 2 18.406680201878839 4.7221821190544402 2 33.663235403260963 6.2871900209090192 2 43.164424414807272 6.3182021813972504 2 42.78133300621645 1 2 54.01089782602957 3.579423486212379 2 59.634453681003258 2.1874068805083149 2 71.485042207096171 1 2 72.935476419694695 3.0094973561039762 2 78.911224780253121 1 2 95.824923110335405 5.3836102201683955 2 7.7560048569989268 9.0306963246283019 2 13.870405490098673 1 2 31.600519907872041 1.7259318722992589 2 41.541245564570289 1 2 46.577763592970584 3.3466768776982065 2 58.22277838554168 1 2 58.790735532951238 8.4522964902500277 2 70.06253778385927 6.1295159794607956 2 72.925850035469963 4.8240140122054926 2 78.588073922179376 8.0786080723056504 2 99.0 1 2 6.6556766636061546 4.0863045325911163 2 13.929866959927255 5.7224859141283506 2 29.912360102755702 7.185941985922776 2 39.668037062233992 6.7986425412927698 2 45.089584905852966 3.2045235020615719 2 56.5374865035675 2.1249852457481402 2 58.621460548295552 5.5438062326800548 2 69.116121124007876 1 2 70.7640963326063 4.4205831490072978 2 80.619947484958132 1 2 95.708535361129492 8.7446346096561225 2 9.6140327792701079 4.8394219739065818 2 14.758232531676697 4.2016618116724462 2 33.399696510981315 3.4368265703783298 2 38.995356270924695 1 2 47.18231989746446 1 2 55.06442423734633 4.677788662655229 2 62.334238579849568 8.9849249836728102 2 66.518009728748922 5.2168217803019825 2 71.565517185531931 7.3894117130209276 2 80.977363333273928 4.5848621232781834 2 99.0 5.3008410183782226 2 5.1003100769853589 1 2 16.85178809122981 7.1673252575785504 2 31.741632314159716 6.7360277972360469 2 40.299208038330647 5.0168382167855041 2 42.672621711176838 2.8042033352466307 2 53.58389434333845 1 2 61.01496484529828 3.5590025618666177 2 70.254336874705103 1 2 73.174286289764183 1 2 80.124951634166706 3.2856580144920935 2 93.984525564190605 5.8674795119054926 2 5.5788368535105333 5.6246109365227062 2 13.615602187690843 3.8345203345295977 2 31.31893770631152 2.8604146770046688 2 40.495055888163336 3.4688189369400422 2 44.42835387656757 4.9960947259963806 2 56.748744916291713 3.3871802418282493 2 60.884225409708861 6.448448174046689 2 67.744178657352734 8.2782030269803162 2 73.64870919618987 8.1035590369310153 2 78.038432465212367 6.1990868869251035 2 98.412215728794649 2.4743340901170638 2 5.4636083459092175 3.4946209058698203 2 15.679243849105413 8.4799628071279951 2 31.504627565907693 8.5415979055755109 2 37.89534824611134 4.3143927758222453 2 44.336659117610168 1 2 55.928717498902515 1 2 59.49966851313976 3.4870639714137344 2 67.854546141253067 2.6068255599584234 2 67.996625686138913 4.0333184459706484 2 81.793810156156809 3.5589195142223375 2 92.22655508765709 7.547311506416146 2 8.5235636242373669 5.8357448941798902 2 17.235149196149909 3.7151335693791561 2 33.027338578863628 2.1544377475446677 2 39.066351540161918 3.5644582511218905 2 48.312261762943564 2.9180465342633655 2 57.366385772937385 6.0880271284087657 2 62.325154065442817 6.8890309506711356 2 65.352440111646615 7.0562049656371917 2 70.526134099433747 9.7242988252800711 2 80.971509474231155 8.026832685913206 2 99.0 7.1245772011852848 2 6.3887535061558411 1 2 18.511515068853914 2.9444089632580566 2 32.246573300955582 5.242564117793191 2 41.723097311000359 4.1502621450493518 2 43.809383257872319 2.0542763578989365 2 55.294125727988394 2.8305003134382307 2 60.830338097221485 1 2 70.830492907904016 2.4453132579441936 2 71.737527086758732 3.6061137485428851 2 79.782062842929065 1.7221217291609219 2 97.375506901047927 6.0887780224844068 2 8.5858186160908403 7.4870480282482399 2 15.177624638815709 1 2 32.607707071989985 1 2 40.325181513283169 1 2 47.250329568785553 2.1976750519483446 2 59.365188883664658 1 2 57.132161669227187 7.8108665661273085 2 68.676436452276079 6.9470499148073515 2 71.618980898264567 5.60102220006649 2 79.686776918394557 9.5722975663094712 2 97.936291427962999 1 2 7.0820283247668767 5.6046121582706014 2 14.512070072093604 7.2357431599081661 2 29.603794551346596 8.9069239386484611 2 38.804009382766971 8.413885279572284 2 43.962811802862028 3.632273413482157 2 57.234988220629944 1 2 59.376033632891577 6.8240468987000487 2 67.994841888749008 1 2 69.742395848455075 3.2302753355420921 2 81.872957255552748 1 2 95.15864249372521 7.0427517658846854 2 10.699935891105794 3.7525400342425552 2 15.559645724293325 5.7808578642109527 2 32.195422024178015 3.7371681079427632 2 39.83323036396532 2.1950867847681321 2 45.822467830763202 1 2 56.522887141320687 4.6722762813698688 2 64.12360342483457 8.4546070567435159 2 68.085632948854922 5.5900375916685432 2 73.061662759542202 6.522199716890742 2 81.292076555180401 6.1066255159712366 2 97.484094791769337 4.2967176470989576 2 6.769184504321748 2.5195523933535444 2 17.042587122326228 5.4307359606816492 2 30.181247348226456 5.6657853273823653 2 41.52449882791737 5.9630901212819261 2 42.87850510627942 4.6766083441561959 2 54.89264179312886 1 2 61.005168488157295 2.2563826471958208 2 69.049552306379567 2.3529609267810723 2 72.22782581049934 1.8366364232774757 2 78.895289593085238 2.9082231785524564 2 93.029432834936387 4.5158578052534564 2 6.7166632978492915 7.3028594564317828 2 13.86874275018765 2.4036907631497715 2 30.044186885483054 2.5981961119028791 2 41.487794865509585 2.3576834456783864 2 45.236901979339144 6.1121763595609115 2 58.141967758133227 4.2257986852561258 2 60.650343217352649 8.2661320825093938 2 67.122925315880337 9.857963094471117 2 75.380459426446123 8.6735320457379625 2 79.61472487831962 5.137097674532038 2 99.0 3.6075297632966108 2 5.1572648905938099 2.2593498315624743 2 15.629103823224646 10.274301405917447 2 33.278403597516345 7.9474250629754568 2 38.946139780619603 5.3007301912376521 2 45.573174489485801 2.0483009357832769 2 53.937984267341399 2.2064381546940881 2 58.137111025519296 2.5796570464911248 2 66.690967406693431 3.33812706713947 2 69.323618503490536 4.6376695638229908 2 83.030732899634074 2.1823767083105299 2 93.817524523821049 8.4627942876630158 2 8.0611338838164066 4.0960183545207265 2 15.981152241526956 3.981204953507488 2 34.052344865380206 1 2 38.195399288190082 2.4477283108819163 2 47.663720408920135 4.4988797972702708 2 55.820482330328211 6.2810887829596425 2 63.815099043050068 6.6399374341409576 2 66.846014062505489 6.8386678781750279 2 69.943858263772526 8.0246796179850595 2 79.718574729098094 6.7755854617074851 2 97.323692161432888 7.8784950502507467 2 </DataArray>
<DataArray Name="forces" NumberOfComponents="3" format="ascii" type="Float32">0 0 0 -0.015748182862480392 -0.76722591681316088 0.0 0.012079304633123955 0.10221078745255427 0.0 -0.014392511430479815 0.20558625506074851 0.0 0.023184892611916627 0.27693474925667638 0.0 0.045077680575409895 -0.66339051293955853 0.0 0.034553344405232361 0.15742040455002082 0.0 -0.10298345439173545 0.20621846714225178 0.0 0.04401195994021323 -1.0374280287027207 0.0 0.076366896769674897 0.16288168317007745 0.0 0.043894634975737423 -0.89705530036827841 0.0 -0.020318584786569047 0.20792303037188339 0.0 -0.11731260148402996 0.22245132166589179 0.0 0.042183117507194223 -0.72912186281238145 0.0 -0.014549041567613497 0.074733955899377258 0.0 0.049930010774333816 -0.63713150164563404 0.0 0.093034312278290843 0.15946768791216132 0.0 0.064238528584122032 -0.49911923027964405 0.0 -0.016773578694669167 0.34777299625918101 0.0 0.06828306187563174 0.23164400441737482 0.0 -0.0099542697025455373 0.15976497544326548 0.0 0.017116372128328727 0.1842690128351348 0.0 1.0918986213867328 -0.37414487622397541 0.0 -0.06607477723525923 0.21385733485994474 0.0 0.0129666438232246 0.1595406477503791 0.0 0.033141534363493375 0.26091285216088422 0.0 0.14010292880655101 0.166811775978806 0.0 0.075289871332996139 0.26517327666911317 0.0 0.052851878203950764 0.12383810455029283 0.0 0.042303125595409052 0.090334916770984874 0.0 0.049150565141172553 -0.64425234137120913 0.0 -0.0051776053639448483 0.1564069093335676 0.0 -0.0078525693359753068 -0.94846875018816568 0.0 0.0054872357737464073 0.29759282321229041 0.0 -0.022066661909343088 0.18048357170847149 0.0 -0.012492669177711524 0.1918305297900281 0.0 0.093873957338398234 0.18362500083085909 0.0 0.0054893239260459248 -0.74353747655036329 0.0 -0.024998573279692418 -0.84174470105362398 0.0 -0.044141464237168443 0.15914500588539382 0.0 0.027734055743893676 0.10569796365910211 0.0 0.036207127913871401 0.12694488277746485 0.0 0.031399264695336243 0.2809973010741455 0.0 0.093386416348074874 0.26492946437334874 0.0 0.32478026206519112 0.14177392555070439 0.0 -0.065429893177581883 -0.73493559039715639 0.0 0.045346345524123734 0.21483819901996465 0.0 0.03009588621145267 0.23546277753017852 0.0 0.0060435884650813509 0.17905720598367503 0.0 -0.06002854126124213 0.14873320918923902 0.0 0.001774309639576005 -0.89208227863169709 0.0 -0.046933169852457393 0.20496567607579846 0.0 0.053421170349876063 -0.55374065575633891 0.0 -0.02498758857359229 -0.94806567267220287 0.0 0.00064508644303710311 0.27518921035125488 0.0 -0.12712517673988788 0.2972756227464699 0.0 0.016694531915269734 0.22626401997668211 0.0 -0.047005430673131343 0.16132218701913603 0.0 -0.028192129061874356 0.15838298099156989 0.0 0.021217298000575202 0.11803555829104789 0.0 -0.056087554999614875 0.13437760353020789 0.0 -0.0049632254676275633 0.19031864004209698 0.0 -0.073062509499967634 0.14135588756285888 0.0 0.055696059256582567 0.28733743816847324 0.0 -0.058551245356557494 0.23882838199878173 0.0 -0.0033320729065353938 0.20469634711021342 0.0 0.19536126147886879 0.11726636896052611 0.0 -0.042873896657621924 0.091310397386657582 0.0 0.05010824442932945 0.18957629797578676 0.0 -0.083230464669824838 0.20680688859794077 0.0 -0.085962636271868148 0.099038386736365017 0.0 0.0085239516513674896 -0.97910564193032701 0.0 -0.053016940084662068 -0.69508693550912415 0.0 -0.040880519626396383 0.2353286703621606 0.0 -0.010447738204431567 0.13126008417263285 0.0 -0.0026984012022360226 0.12453455831104307 0.0 0.03371351076767104 0.095018453685209184 0.0 -0.045742150302380144 0.18878769239653337 0.0 0.019609722218485968 0.19767258804158677 0.0 0.05639314413631244 0.16270476607724055 0.0 -0.060668414394719289 0.2136048789907905 0.0 0.054733313250897087 0.21420812011037443 0.0 0.045412242347887002 0.16163163186865676 0.0 0.076494669538953897 0.23915388361989093 0.0 -0.062472640386462497 0.35340769373865838 0.0 0.057606842309558148 0.23556132072048813 0.0 0.065115089903436757 0.1941291395800617 0.0 -0.11389309425117597 0.29069713899897953 0.0 0.2092350993005091 0.14742361172646723 0.0 -0.023177313400346622 -0.59053556622460546 0.0 0.085890707014866535 -0.027141025130563809 0.0 -0.094810753162140965 0.20279852656010311 0.0 -0.022206763262662962 0.11196525144251362 0.0 0.047954109046529997 0.1614366904840554 0.0 0.020943227425260114 0.11966878490131341 0.0 0.052946622844630087 -0.99536561668266921 0.0 -0.014762189712623497 0.16618634815241243 0.0 0.042781685021771425 0.18390889569726374 0.0 0.0073907655455646148 0.25383952761758 0.0 0.032249728425106809 0.16191936190986092 0.0 0.03755190772113641 0.25490991319502287 0.0 0.02129158380591184 -0.69304459632469251 0.0 0.060440316678584738 -1.1740490873476974 0.0 0.017658436984809817 -0.81328255567293239 0.0 0.012783351570409329 0.12482137964053536 0.0 0.15142509859591269 -0.76024050336007853 0.0 0.0004640974380837673 0.16283631418407174 0.0 -0.0055642852617552863 0.16007136580731382 0.0 0.0050503650029716518 0.20581642310016876 0.0 0.085034459376829727 0.11674412150347878 0.0 -0.022860844404620606 -0.5260886719018274 0.0 0.022616194820495539 0.23042673641240347 0.0 -0.043655391322048417 0.20968119337914773 0.0 -0.10951317064748092 0.26297541565294075 0.0 -0.041241755238466696 0.12542595529565712 0.0 -0.13666070157114635 0.070403435439403861 0.0 -0.058178997634065172 -0.71705353336820643 0.0 -0.13578133900670863 0.26956509479045665 0.0 0.027736088420146965 -1.021352387772243 0.0 -0.031167783551549144 0.21179809146192496 0.0 0.0080655805725078633 -0.82812966135402166 0.0 0.12890761604299189 0.2015122628679111 0.0 -0.0012473539597756544 0.14319474762281242 0.0 0.026093330927040019 0.23070401616539238 0.0 0.0092388055595964136 0.17530784454412215 0.0 -0.0054903241604008501 0.13349443106636397 0.0 -0.016681541893864366 -0.98910380785744001 0.0 0.030308917176321989 0.24211911229338606 0.0 0.063635443712559053 0.22051882362376576 0.0 0.021935789178757131 0.15025000167893018 0.0 0.0095224106249582052 0.18420271505492378 0.0 0.018551203907215902 0.30599000848238384 0.0 -0.011844411017988832 0.16093089743696018 0.0 -0.033016876726432054 0.14683887100287857 0.0 0.03813062513284364 0.19781458674465258 0.0 0.072383369068864972 0.20315897443964392 0.0 -0.011799502485129509 0.18006334049857625 0.0 -0.052472969560146202 0.26207946695255285 0.0 -0.02076245950454586 -0.49274818103217821 0.0 -0.070515166098666704 0.16776152061141442 0.0 0.025238830692867142 0.1314454800947702 0.0 -0.0080253146191553368 0.2169304244167585 0.0 -0.052753777686224135 0.13708929235028089 0.0 0.013929458149879885 -0.017025911227930707 0.0 0.040829035680736564 0.23373624942096588 0.0 0.038769749962794427 0.14606511032034344 0.0 -0.032358205198301716 0.07409272201924183 0.0 -0.0085017235294734816 0.09420910016453754 0.0 0.029691537923063199 0.1677949847263609 0.0 -0.016007413413387014 0.10749715889231787 0.0 0.0060986825244857268 0.14302092380592932 0.0 -0.11031994687735656 0.28756218765132563 0.0 -0.011566840856652688 0.16948910786665641 0.0 0.029630827150521896 0.20776024014304967 0.0 0.64590682654490994 0.19436257355224865 0.0 -0.034027047557226353 0.094798178593304486 0.0 -0.0051941544310329605 0.20658749513559541 0.0 -0.0096986289556682537 0.24042874024620509 0.0 -0.082484317541847235 0.15216480039456481 0.0 -0.0012863243950305414 0.18128799267268592 0.0 -0.035965344364701002 0.15241785966415886 0.0 -0.0072075520542540829 -0.0035480477639293628 0.0 -0.021820914781484794 0.14683072332671346 0.0 -0.00050997441547684375 0.24599411293451673 0.0 -0.048199570792661794 0.09847432938973133 0.0 0.02335842826527728 0.10566977545567632 0.0 -0.060074043083195139 0.16384193219913828 0.0 0.019264975591454764 0.22021344903448911 0.0 -0.004737768474149251 -0.84029817725334643 0.0 0.062350220289540265 0.16321564415619005 0.0 0.0031084716867073592 0.22278573646500299 0.0 -0.036290119404582197 0.14580520271178449 0.0 -0.013404652422675974 0.24213076339802347 0.0 0.060872146555706941 0.16942639725857586 0.0 -0.059065535798955626 0.22062990850835612 0.0 -0.016349170559127369 0.17292740805562334 0.0 -0.0051107759426001669 0.20018501096702768 0.0 </DataArray>
<DataArray Name="radii" format="ascii" type="Float32">0 1 1 1 1 1 1 1 1 1 1 1 1 1 1 1 1 1 1 1 1 1 1 1 1 1 1 1 1 1 1 1 1 1 1 1 1 1 1 1 1 1 1 1 1 1 1 1 1 1 1 1 1 1 1 1 1 1 1 1 1 1 1 1 1 1 1 1 1 1 1 1 1 1 1 1 1 1 1 1 1 1 1 1 1 1 1 1 1 1 1 1 1 1 1 1 1 1 1 1 1 1 1 1 1 1 1 1 1 1 1 1 1 1 1 1 1 1 1 1 1 1 1 1 1 1 1 1 1 1 1 1 1 1 1 1 1 1 1 1 1 1 1 1 1 1 1 1 1 1 1 1 1 1 1 1 1 1 1 1 1 1 1 1 1 1 1 1 1 1 1 1 1 1 1 1 1 </DataArray>
</PointData>
<CellData/>
</Piece>
</UnstructuredGrid>
</VTKFile>
