<?xml version="1.0" ?>
<VTKFile byte_order="LittleEndian" type="UnstructuredGrid" version="0.1">
<UnstructuredGrid>
<Piece NumberOfCells="0" NumberOfPoints="23">
<Points>
<DataArray NumberOfComponents="3" format="ascii" type="Float32">0 0 0 7.4623924658324459 1.2 2 16.401822331573413 2.7583275769052258 2 31.45010522959813 2.6871497281612142 2 39.537097160174035 3.1786685188176058 2 43.292265724692413 1.2 2 55.163484240038883 1.2 2 59.959287944867064 1.2 2 68.283305988362869 1.2 2 71.442823956214156 1.2 2 80.758708748017824 1.2 2 95.491052961427769 3.0122441796397661 2 8.7731953897696293 3.1926359341727455 2 14.473147594453135 1.2 2 33.46313232528891 1.2 2 40.935363395294253 1.2 2 45.648009006795256 1.7379756228202548 2 57.555650571531196 1.2 2 60.447578402331509 3.5442351495820175 2 67.578294490677521 3.4906676973115762 2 72.702072623962323 3.2252492818973328 2 78.877544036220613 2.6815812753006103 2 97.0657729031456 1.2 2 </DataArray>
</Points>
<Cells>
<DataArray Name="connectivity" format="ascii" type="Int32">0</DataArray>
<DataArray Name="offsets" format="ascii" type="Int32">0</DataArray>
<DataArray Name="types" format="ascii" type="UInt8">1</DataArray>
</Cells>
<PointData>
<DataArray Name="Points" NumberOfComponents="3" format="ascii" type="Float32">0 0 0 7.4623924658324459 1.2 2 16.401822331573413 2.7583275769052258 2 31.45010522959813 2.6871497281612142 2 39.537097160174035 3.1786685188176058 2 43.292265724692413 1.2 2 55.163484240038883 1.2 2 59.959287944867064 1.2 2 68.283305988362869 1.2 2 71.442823956214156 1.2 2 80.758708748017824 1.2 2 95.491052961427769 3.0122441796397661 2 8.7731953897696293 3.1926359341727455 2 14.473147594453135 1.2 2 33.46313232528891 1.2 2 40.935363395294253 1.2 2 45.648009006795256 1.7379756228202548 2 57.555650571531196 1.2 2 60.447578402331509 3.5442351495820175 2 67.578294490677521 3.4906676973115762 2 72.702072623962323 3.2252492818973328 2 78.877544036220613 2.6815812753006103 2 97.0657729031456 1.2 2 </DataArray>
<DataArray Name="forces" NumberOfComponents="3" format="ascii" type="Float32">0 0 0 -0.00015539547687177971 -0.00023740855425752913 0.0 0.040557568731191471 0.034485328900858023 0.0 -0.050031624993584163 0.039192402373166603 0.0 -0.020090842794816887 0.029275181774631929 0.0 -0.0070352054158537829 -0.0029772597287554851 0.0 0.0 0.0 0.0 0.00017283482392290665 -0.021114571164534329 0.0 0.0057078752127473539 -0.018988290998036422 0.0 -0.0080278054164544897 -0.012574119674832948 0.0 0.0084536845554603595 -0.0065434599464773225 0.0 -0.0042383741370553354 0.011958884125837142 0.0 -0.0021300378772048751 0.0037481102944483769 0.0 -0.040557568731191471 -0.034485328900858023 0.0 0.050031624993584163 -0.039192402373166603 0.0 0.014659700630134009 -0.029275181774631929 0.0 0.012466347580536661 0.0029772597287554851 0.0 -0.004533189127088999 0.0 0.0 0.0043603543031660924 0.021114571164534329 0.0 -0.0057078752127473539 0.018988290998036422 0.0 -0.021972752483657196 0.021111747919075823 0.0 0.013212847010734814 0.023505571434390218 0.0 0.0080891102997547003 -0.0094424650273542774 0.0 </DataArray>
<DataArray Name="radii" format="ascii" type="Float32">0 1.2 1.2 1.2 1.2 1.2 1.2 1.2 1.2 1.2 1.2 1.2 1.2 1.2 1.2 1.2 1.2 1.2 1.2 1.2 1.2 1.2 1.2 </DataArray>
</PointData>
<CellData/>
</Piece>
</UnstructuredGrid>
</VTKFile>
