<?xml version="1.0" ?>
<VTKFile byte_order="LittleEndian" type="UnstructuredGrid" version="0.1">
<UnstructuredGrid>
<Piece NumberOfCells="0" NumberOfPoints="80">
<Points>
<DataArray NumberOfComponents="3" format="ascii" type="Float32">20.345648879943663 1 2 25.883390596488436 4.2320658833439495 2 37.882877698173189 6.4758337929144636 2 64.991110698179611 1 2 89.755824528454255 8.3676719304404443 2 19.297305432332433 1.1972263085482586 2 21.629465910016396 7.6983830473175328 2 35.082834768794193 8.5263661488868827 2 62.486262717232492 3.499040787694736 2 88.71430650941771 2.1163522584259451 2 19.393763883535168 8.1171891109155183 2 27.50752059268552 8.6081193711392032 2 35.316475813192 1 2 64.757263891039301 5.3288006739690159 2 90.115452664510542 2.7151614244093953 2 17.795659129952782 2.0924502023269582 2 23.46981981749407 1.888287678395304 2 35.221390495493509 5.1474197715653345 2 62.366468302687721 2.1747674341838876 2 86.50484012479096 3.9182207960040234 2 21.476296107184858 1 2 23.632832131948554 6.0175483439058173 2 36.592517456467732 3.8745791738894368 2 66.147852224704749 1 2 89.283154895685698 5.3630395194719629 2 19.554370816537784 3.3562522582609637 2 22.2632596653383 3.9815202404990009 2 37.214452718781196 9.5500143414041112 2 59.961761013002025 4.9387265059167831 2 88.071372473146027 3.8496307943690802 2 19.78064911291057 5.0454048352748204 2 24.949029454029301 8.4317292857738071 2 36.682154135410492 1 2 65.548509666107989 4.0961247149239401 2 89.2346403475199 1 2 15.111379433803036 2.4942111236227884 2 24.405734181695514 3.4061440722212981 2 35.199322197558189 3.628952381689373 2 63.709158492611202 2.1793663438929647 2 85.902547807202652 1 2 21.603946768869484 2.4789015285690126 2 25.337730621090291 2.6798813797649084 2 36.702380468191151 5.4985062024730151 2 65.76926410922286 2.3521204996273082 2 88.645589115936744 6.8535277104977448 2 18.079536643803383 1 2 20.387482588200122 6.4923866181840602 2 35.38560519004352 6.7564122498046739 2 63.012099476985298 5.1559654806630562 2 87.625892646330612 1 2 18.548467328665645 6.4852703511059122 2 26.227151060063736 7.1570658045353577 2 34.422503092521382 2.4413257313553975 2 63.851494261626861 3.8923231465568078 2 89.315495303658636 3.7707824631607982 2 16.544707042019507 1 2 24.176669004515578 1 2 33.83363172066263 4.6719736867811399 2 62.278600728851956 1 2 85.498428427759976 2.9648485322134412 2 22.590639007496033 1 2 23.652171169084681 4.565216266992862 2 36.996260188666618 2.6177173367451316 2 67.069444421895284 1.421010118787603 2 90.67139695758415 4.6573085293454834 2 20.396333792304976 2.5629261084151702 2 22.007903393419259 5.75426961404892 2 36.858286996137494 7.7648071081513867 2 61.57354601091096 5.0106000234647068 2 87.403079864554243 2.6282959240761024 2 20.980219377331601 4.2948435637279658 2 23.388740753434607 7.5586337456406145 2 37.814050718978152 1 2 64.703372827773933 2.8003439871833451 2 90.454395053582772 1 2 16.433021159590606 2.330367407855749 2 23.016256153934101 2.8405664325337714 2 35.77120015053147 2.2007550321964606 2 63.760326982136803 1 2 86.39044574298174 1.9270038223383894 2 </DataArray>
</Points>
<Cells>
<DataArray Name="connectivity" format="ascii" type="Int32">0</DataArray>
<DataArray Name="offsets" format="ascii" type="Int32">0</DataArray>
<DataArray Name="types" format="ascii" type="UInt8">1</DataArray>
</Cells>
<PointData>
<DataArray Name="Points" NumberOfComponents="3" format="ascii" type="Float32">20.345648879943663 1 2 25.883390596488436 4.2320658833439495 2 37.882877698173189 6.4758337929144636 2 64.991110698179611 1 2 89.755824528454255 8.3676719304404443 2 19.297305432332433 1.1972263085482586 2 21.629465910016396 7.6983830473175328 2 35.082834768794193 8.5263661488868827 2 62.486262717232492 3.499040787694736 2 88.71430650941771 2.1163522584259451 2 19.393763883535168 8.1171891109155183 2 27.50752059268552 8.6081193711392032 2 35.316475813192 1 2 64.757263891039301 5.3288006739690159 2 90.115452664510542 2.7151614244093953 2 17.795659129952782 2.0924502023269582 2 23.46981981749407 1.888287678395304 2 35.221390495493509 5.1474197715653345 2 62.366468302687721 2.1747674341838876 2 86.50484012479096 3.9182207960040234 2 21.476296107184858 1 2 23.632832131948554 6.0175483439058173 2 36.592517456467732 3.8745791738894368 2 66.147852224704749 1 2 89.283154895685698 5.3630395194719629 2 19.554370816537784 3.3562522582609637 2 22.2632596653383 3.9815202404990009 2 37.214452718781196 9.5500143414041112 2 59.961761013002025 4.9387265059167831 2 88.071372473146027 3.8496307943690802 2 19.78064911291057 5.0454048352748204 2 24.949029454029301 8.4317292857738071 2 36.682154135410492 1 2 65.548509666107989 4.0961247149239401 2 89.2346403475199 1 2 15.111379433803036 2.4942111236227884 2 24.405734181695514 3.4061440722212981 2 35.199322197558189 3.628952381689373 2 63.709158492611202 2.1793663438929647 2 85.902547807202652 1 2 21.603946768869484 2.4789015285690126 2 25.337730621090291 2.6798813797649084 2 36.702380468191151 5.4985062024730151 2 65.76926410922286 2.3521204996273082 2 88.645589115936744 6.8535277104977448 2 18.079536643803383 1 2 20.387482588200122 6.4923866181840602 2 35.38560519004352 6.7564122498046739 2 63.012099476985298 5.1559654806630562 2 87.625892646330612 1 2 18.548467328665645 6.4852703511059122 2 26.227151060063736 7.1570658045353577 2 34.422503092521382 2.4413257313553975 2 63.851494261626861 3.8923231465568078 2 89.315495303658636 3.7707824631607982 2 16.544707042019507 1 2 24.176669004515578 1 2 33.83363172066263 4.6719736867811399 2 62.278600728851956 1 2 85.498428427759976 2.9648485322134412 2 22.590639007496033 1 2 23.652171169084681 4.565216266992862 2 36.996260188666618 2.6177173367451316 2 67.069444421895284 1.421010118787603 2 90.67139695758415 4.6573085293454834 2 20.396333792304976 2.5629261084151702 2 22.007903393419259 5.75426961404892 2 36.858286996137494 7.7648071081513867 2 61.57354601091096 5.0106000234647068 2 87.403079864554243 2.6282959240761024 2 20.980219377331601 4.2948435637279658 2 23.388740753434607 7.5586337456406145 2 37.814050718978152 1 2 64.703372827773933 2.8003439871833451 2 90.454395053582772 1 2 16.433021159590606 2.330367407855749 2 23.016256153934101 2.8405664325337714 2 35.77120015053147 2.2007550321964606 2 63.760326982136803 1 2 86.39044574298174 1.9270038223383894 2 </DataArray>
<DataArray Name="forces" NumberOfComponents="3" format="ascii" type="Float32">-0.010765627149303274 -0.66383930240033906 0.0 -0.054259944040180308 0.15663715944258411 0.0 0.11852154299179096 0.29196386529071133 0.0 -0.076173119038287052 -0.73393218196843213 0.0 0.029607368079832136 0.19337988693585242 0.0 -0.062784925145908971 -0.080875003406872523 0.0 -0.04810139921827794 0.22546786634306618 0.0 0.0029621287452076817 0.26250067833530427 0.0 -0.010774142299613113 0.22690102952254818 0.0 0.068732381650462804 0.24675037479974385 0.0 0.026792801955762793 0.22719740574115696 0.0 -0.020384550903928482 0.23002272257259604 0.0 0.007054575932686491 -0.92872404768692673 0.0 0.050343584527789809 0.2704030261966926 0.0 0.12036038910380703 0.12367067543493468 0.0 -0.049427866900598416 0.1409499917024547 0.0 0.065367457820457719 0.22234150717898626 0.0 -0.034906822591422859 0.20912233368970393 0.0 -0.058653650921436901 0.22351372954693502 0.0 0.046153757418285701 0.1005314390665531 0.0 -0.011664672190316916 -0.59217797169845987 0.0 -0.030072752534971561 0.27096035909932925 0.0 -0.095864686657940054 0.2103987153359064 0.0 -0.044876729193412457 -0.98850201946289218 0.0 -0.092649690984874633 0.15823661697096378 0.0 0.060789605433293731 0.27419740855122682 0.0 0.027031630979358567 0.30064008588713853 0.0 -0.0035444806051016242 0.20456652194176209 0.0 0.010253812275436203 0.22688129016557718 0.0 0.013275822495101453 0.28004979113967993 0.0 0.01257163539162498 0.25900627975947776 0.0 0.047484869933032581 0.24325471734757328 0.0 -0.0022307133990698835 -0.73904602412872622 0.0 -0.06941586299242708 0.16113006800421592 0.0 -0.097461104148605537 -0.76518829479103334 0.0 0.01544205119330111 0.19637903494255704 0.0 -0.002259246914772306 0.20134315651269366 0.0 -0.019424097389113076 0.18179394723302034 0.0 -0.040569360822250496 0.22348482430475991 0.0 0.025889546655475715 -0.91628661973977366 0.0 0.070749164412184262 0.15977901865010458 0.0 -0.11599974046929104 0.055487536115236574 0.0 0.02837545665509808 0.2870219805746963 0.0 0.094278322032598283 0.14622109789606602 0.0 0.00011966569674075334 0.20486208102523956 0.0 -0.069633747723611195 -0.97691788587963424 0.0 -0.015775221247158494 0.21711300107760526 0.0 -0.023947457905851371 0.24002862381004242 0.0 0.01831163676085415 0.28272746635070534 0.0 -0.0084168338682785171 -0.95045466377731991 0.0 0.0058088055982728481 0.19698871172137625 0.0 0.0047800721505777272 0.18809739073243398 0.0 0.0046961034823927994 0.098987969654736885 0.0 0.020480368040935171 0.23660474803872411 0.0 0.11501560005137573 0.096617935817803369 0.0 -0.030954992270590787 -0.88893332631012512 0.0 -0.0011798499164151766 -1.0649189813017061 0.0 -0.066026881050046143 0.2232201511053446 0.0 0.012907542524325466 -1.0734510541965765 0.0 0.0048632265046267831 0.22369039485750314 0.0 0.043160802307990617 -0.83603938600837258 0.0 0.063379412086168901 0.22739173396637108 0.0 0.040823027753572827 0.13205742740222454 0.0 0.019661771993190084 0.06344610334740905 0.0 -0.0038554342281350018 0.30446640786067775 0.0 -0.032111690589190479 0.0087078454993481658 0.0 -0.048832265876626424 0.21754852035311448 0.0 -0.013339762514759851 0.19608397018629375 0.0 0.052009791125443239 0.21527199158109533 0.0 0.048033412615489768 0.10961252323115656 0.0 -0.018061546258519579 0.074845533940252118 0.0 -0.020042618946487928 0.31235962096790543 0.0 0.0066549406788996845 -0.65556990221188904 0.0 0.026452744188646071 0.076900285289322468 0.0 -0.092953894164234524 -0.5387862051371799 0.0 -0.0039186351014116189 0.18602161066007572 0.0 -0.022421945977755882 0.2317629463757519 0.0 0.018525496596435098 0.17129801516969936 0.0 -0.083039745165916279 -0.94207371656444594 0.0 -0.054201235558748451 0.17849012934449321 0.0 </DataArray>
<DataArray Name="radii" format="ascii" type="Float32">1 1 1 1 1 1 1 1 1 1 1 1 1 1 1 1 1 1 1 1 1 1 1 1 1 1 1 1 1 1 1 1 1 1 1 1 1 1 1 1 1 1 1 1 1 1 1 1 1 1 1 1 1 1 1 1 1 1 1 1 1 1 1 1 1 1 1 1 1 1 1 1 1 1 1 1 1 1 1 1 </DataArray>
</PointData>
<CellData/>
</Piece>
</UnstructuredGrid>
</VTKFile>
