<?xml version="1.0" ?>
<VTKFile byte_order="LittleEndian" type="UnstructuredGrid" version="0.1">
<UnstructuredGrid>
<Piece NumberOfCells="0" NumberOfPoints="64">
<Points>
<DataArray NumberOfComponents="3" format="ascii" type="Float32">1.4 2.9445329841861159 2 11.471384927360498 3.0100218418059739 2 28.048735123250651 5.2236793093469389 2 47.048055197530026 5.1844165730534382 2 52.546068533293841 1.4 2 74.708710637757918 1.4 2 84.389178008107137 1.4 2 91.888052798235307 1.4 2 3.9755175613732474 5.0176794334483583 2 12.614288341046871 1.4 2 28.580671875864819 1.4 2 48.111476185129767 7.5203144068897192 2 52.584572410311459 7.6244700549083388 2 76.771418011111919 4.7650009551008887 2 86.21223496167697 7.5975138807932625 2 96.194037962586251 3.3928385269864827 2 3.4229634720886595 1.4 2 12.289703846697449 7.6824702691423878 2 26.709647326182118 1.4 2 48.700988297148506 1.4 2 51.223248231859287 5.365953048569402 2 74.90900032716111 5.1755845959818263 2 82.638677962338676 5.2415242135205808 2 91.927687959959073 5.2732068973507422 2 1.4 4.8555596006210191 2 8.3700340343577153 2.9764889431445853 2 29.809958606910552 3.8719503559792501 2 43.826477928753434 7.4398111609668245 2 53.327451923895659 5.3263677886907246 2 76.077721971235761 2.8322649836221125 2 84.947535433303528 5.3790262531891839 2 93.622507867762508 1.4 2 1.4 1.4 2 12.391745369208589 5.0968260951308269 2 25.976203136284209 5.4318259496047805 2 49.14197441042576 5.2741813607334365 2 51.885122861922142 3.3162030730696093 2 74.122892993764395 3.2171124043257833 2 82.555140914378214 1.4 2 93.846105419916086 3.3106093359997706 2 3.7774484965302775 7.4069782751173294 2 10.705789692106924 1.4 2 27.98971753028211 3.1135342603701748 2 45.969201507340479 7.4452914248561406 2 50.304176523376533 7.6303879382184512 2 78.188654421687318 3.452237028931374 2 83.562443557209008 7.5399159995143599 2 96.909703120606622 1.4 2 3.3348571970277465 3.1555715651299496 2 10.26907950820808 6.4048661661943669 2 24.929719884314775 1.4 2 50.651894454785293 1.4 2 50.057473236502005 3.2139566603026477 2 76.469182988522221 7.1762123202757362 2 84.032080092132574 3.2991873353536612 2 91.781452074854712 3.2820310310430703 2 1.4 7.103755772979274 2 9.1847124208455853 1.4 2 30.053924184298037 1.4 2 41.618665819312277 7.6205438518997921 2 54.930214072961355 7.4498934757726341 2 76.837307051459703 1.4 2 87.309470933290029 5.3850376812112053 2 95.282835441830741 1.4 2 </DataArray>
</Points>
<Cells>
<DataArray Name="connectivity" format="ascii" type="Int32">0</DataArray>
<DataArray Name="offsets" format="ascii" type="Int32">0</DataArray>
<DataArray Name="types" format="ascii" type="UInt8">1</DataArray>
</Cells>
<PointData>
<DataArray Name="Points" NumberOfComponents="3" format="ascii" type="Float32">1.4 2.9445329841861159 2 11.471384927360498 3.0100218418059739 2 28.048735123250651 5.2236793093469389 2 47.048055197530026 5.1844165730534382 2 52.546068533293841 1.4 2 74.708710637757918 1.4 2 84.389178008107137 1.4 2 91.888052798235307 1.4 2 3.9755175613732474 5.0176794334483583 2 12.614288341046871 1.4 2 28.580671875864819 1.4 2 48.111476185129767 7.5203144068897192 2 52.584572410311459 7.6244700549083388 2 76.771418011111919 4.7650009551008887 2 86.21223496167697 7.5975138807932625 2 96.194037962586251 3.3928385269864827 2 3.4229634720886595 1.4 2 12.289703846697449 7.6824702691423878 2 26.709647326182118 1.4 2 48.700988297148506 1.4 2 51.223248231859287 5.365953048569402 2 74.90900032716111 5.1755845959818263 2 82.638677962338676 5.2415242135205808 2 91.927687959959073 5.2732068973507422 2 1.4 4.8555596006210191 2 8.3700340343577153 2.9764889431445853 2 29.809958606910552 3.8719503559792501 2 43.826477928753434 7.4398111609668245 2 53.327451923895659 5.3263677886907246 2 76.077721971235761 2.8322649836221125 2 84.947535433303528 5.3790262531891839 2 93.622507867762508 1.4 2 1.4 1.4 2 12.391745369208589 5.0968260951308269 2 25.976203136284209 5.4318259496047805 2 49.14197441042576 5.2741813607334365 2 51.885122861922142 3.3162030730696093 2 74.122892993764395 3.2171124043257833 2 82.555140914378214 1.4 2 93.846105419916086 3.3106093359997706 2 3.7774484965302775 7.4069782751173294 2 10.705789692106924 1.4 2 27.98971753028211 3.1135342603701748 2 45.969201507340479 7.4452914248561406 2 50.304176523376533 7.6303879382184512 2 78.188654421687318 3.452237028931374 2 83.562443557209008 7.5399159995143599 2 96.909703120606622 1.4 2 3.3348571970277465 3.1555715651299496 2 10.26907950820808 6.4048661661943669 2 24.929719884314775 1.4 2 50.651894454785293 1.4 2 50.057473236502005 3.2139566603026477 2 76.469182988522221 7.1762123202757362 2 84.032080092132574 3.2991873353536612 2 91.781452074854712 3.2820310310430703 2 1.4 7.103755772979274 2 9.1847124208455853 1.4 2 30.053924184298037 1.4 2 41.618665819312277 7.6205438518997921 2 54.930214072961355 7.4498934757726341 2 76.837307051459703 1.4 2 87.309470933290029 5.3850376812112053 2 95.282835441830741 1.4 2 </DataArray>
<DataArray Name="forces" NumberOfComponents="3" format="ascii" type="Float32">-1.0515620598066269 0.42961643478263944 0.0 0.012330014012177742 0.4256803338796657 0.0 0.082092553216299324 0.48500775906989513 0.0 0.003358523539500502 0.49367774184192359 0.0 -0.047533775752695573 -1.3494139401511838 0.0 -0.036330436185441739 -1.4503098147960976 0.0 -0.053334742705597793 -1.1010268847075046 0.0 -0.050211645271790194 -1.0656916930980056 0.0 -0.027383680635384072 0.52597363265538899 0.0 -0.045209257042362172 -1.2663504178353164 0.0 -0.093054954069623053 -0.95836669799913965 0.0 0.012311695268375611 0.50740356384140683 0.0 0.039713073790948628 0.54060184714572224 0.0 0.01727322371248325 0.44596710116969407 0.0 0.065712685379947677 0.52240976126380922 0.0 0.033281966862793305 0.45698708362084944 0.0 -0.028317638913366749 -1.3751338055829763 0.0 0.048071012832628143 0.50419116898448868 0.0 -0.086021129108308614 -1.1683508757236714 0.0 -0.083826986744519161 -1.3610316562685361 0.0 0.04055914412918421 0.50357108444742527 0.0 0.023394691644189169 0.52737486035847125 0.0 0.0570776083362938 0.49104419730900378 0.0 0.027485749311891933 0.46416363655871501 0.0 -0.38607504603348825 0.47364443885574081 0.0 -0.051049672660613998 0.42124255391937437 0.0 -0.024864426260942606 0.23016491862678518 0.0 -0.033393802357555624 0.52096847688256387 0.0 0.049440288125741597 0.52874749248785458 0.0 0.058193565159514904 0.44330879397417611 0.0 0.060050270865989686 0.50924569099071026 0.0 -0.0605810318733353 -0.99265704668653743 0.0 -0.91628605258470475 -1.3877430324035727 0.0 -0.059237379343388075 0.45544109859138232 0.0 -0.0065220202639664909 0.54020888067086303 0.0 0.028146903902280085 0.49261150435393802 0.0 0.047131738226917741 0.45704297582868858 0.0 0.084193432586739947 0.48237372000486961 0.0 -0.050928110259448434 -1.3029570149066396 0.0 0.05013869767484852 0.43460270991833394 0.0 0.04841394593484516 0.60084453332214338 0.0 -0.023745774888218607 -1.0300084698502971 0.0 -0.0078632386683351596 0.41042615801402782 0.0 -0.0097336917018496366 0.51260718295133223 0.0 0.027414342730802205 0.52048331976751383 0.0 0.076447940037998319 0.44287868593557617 0.0 0.04696466376973038 0.52625672275682178 0.0 -0.036526638091670893 -0.96410210196187029 0.0 -0.0067910098102166305 0.45317230479101139 0.0 0.010993036172299631 0.46056183210931911 0.0 -0.03185789753907281 -1.2418796692497247 0.0 -0.05948075929511959 -1.2941625315373915 0.0 0.061383226856871809 0.43833081637027138 0.0 0.037085501470743049 0.50282010236412833 0.0 0.091781463221814019 0.43682929890056998 0.0 0.049368890418794054 0.42652454987294464 0.0 -0.40558065525334047 0.50421103374764575 0.0 -0.01294149840862624 -0.95909568169729853 0.0 -0.008996757021380114 -0.58787708548947171 0.0 -0.060240854150130169 0.50288374911470635 0.0 0.053072234697412846 0.52399511959683553 0.0 -0.039571790756288 -1.3336329172996366 0.0 0.06862814559797209 0.47631947538331726 0.0 -0.041528167021837925 -0.88722896068429646 0.0 </DataArray>
<DataArray Name="radii" format="ascii" type="Float32">1.4 1.4 1.4 1.4 1.4 1.4 1.4 1.4 1.4 1.4 1.4 1.4 1.4 1.4 1.4 1.4 1.4 1.4 1.4 1.4 1.4 1.4 1.4 1.4 1.4 1.4 1.4 1.4 1.4 1.4 1.4 1.4 1.4 1.4 1.4 1.4 1.4 1.4 1.4 1.4 1.4 1.4 1.4 1.4 1.4 1.4 1.4 1.4 1.4 1.4 1.4 1.4 1.4 1.4 1.4 1.4 1.4 1.4 1.4 1.4 1.4 1.4 1.4 1.4 </DataArray>
</PointData>
<CellData/>
</Piece>
</UnstructuredGrid>
</VTKFile>
