<?xml version="1.0" ?>
<VTKFile byte_order="LittleEndian" type="UnstructuredGrid" version="0.1">
<UnstructuredGrid>
<Piece NumberOfCells="0" NumberOfPoints="32">
<Points>
<DataArray NumberOfComponents="3" format="ascii" type="Float32">1 2.0713380985626157 2 12.606486534282876 2.984371727224302 2 28.035583004309942 2.2631699788955735 2 48.136576705872216 2.3041506308803568 2 51.60999187608595 1.0914288348915699 2 74.480765913527236 1 2 83.263878572826158 1 2 92.26155177869731 1 2 5.0775686431810554 3.2464690474331799 2 10.793455722336262 1.3568380602238876 2 29.569754466691148 1 2 47.318963485304884 4.1076689320128015 2 52.609720576343562 4.844716519757938 2 77.824933957823347 2.3935456084665869 2 84.78264404960386 4.8594209972102691 2 96.10546874982586 1.7104130826156867 2 2.6795412541056276 1 2 11.796964440536122 4.8132288725047534 2 26.483987776414832 1 2 49.580215584265417 1 2 50.453670193138812 2.8054096346519346 2 73.470907885581937 2.6113528416091358 2 82.605117889111042 2.8684588967383222 2 93.298803422285971 2.7465808642373815 2 3.1064307385373473 2.9442908489372552 2 8.8338292298814256 1 2 30.768888557702283 2.6271436137325672 2 45.495266576702086 4.9041320623628311 2 53.008105694251519 2.8991266181606852 2 76.450199986017552 1 2 84.59989297639703 2.8928687783611093 2 94.330925556758885 1 2 </DataArray>
</Points>
<Cells>
<DataArray Name="connectivity" format="ascii" type="Int32">0</DataArray>
<DataArray Name="offsets" format="ascii" type="Int32">0</DataArray>
<DataArray Name="types" format="ascii" type="UInt8">1</DataArray>
</Cells>
<PointData>
<DataArray Name="Points" NumberOfComponents="3" format="ascii" type="Float32">1 2.0713380985626157 2 12.606486534282876 2.984371727224302 2 28.035583004309942 2.2631699788955735 2 48.136576705872216 2.3041506308803568 2 51.60999187608595 1.0914288348915699 2 74.480765913527236 1 2 83.263878572826158 1 2 92.26155177869731 1 2 5.0775686431810554 3.2464690474331799 2 10.793455722336262 1.3568380602238876 2 29.569754466691148 1 2 47.318963485304884 4.1076689320128015 2 52.609720576343562 4.844716519757938 2 77.824933957823347 2.3935456084665869 2 84.78264404960386 4.8594209972102691 2 96.10546874982586 1.7104130826156867 2 2.6795412541056276 1 2 11.796964440536122 4.8132288725047534 2 26.483987776414832 1 2 49.580215584265417 1 2 50.453670193138812 2.8054096346519346 2 73.470907885581937 2.6113528416091358 2 82.605117889111042 2.8684588967383222 2 93.298803422285971 2.7465808642373815 2 3.1064307385373473 2.9442908489372552 2 8.8338292298814256 1 2 30.768888557702283 2.6271436137325672 2 45.495266576702086 4.9041320623628311 2 53.008105694251519 2.8991266181606852 2 76.450199986017552 1 2 84.59989297639703 2.8928687783611093 2 94.330925556758885 1 2 </DataArray>
<DataArray Name="forces" NumberOfComponents="3" format="ascii" type="Float32">-0.010841263061365953 0.0069728749331896918 0.0 0.0 0.0 0.0 0.0036359377187856583 0.016634526358702263 0.0 0.00082012972413007465 0.015325305250970022 0.0 0.036656801573639257 0.0024717882089956076 0.0 -0.0078314919020185947 -0.061464157865931845 0.0 -0.025260128068675267 -0.012357624717105621 0.0 -0.046492088768873972 -0.0046126091211442398 0.0 0.0023700888781184237 0.00039275379422093985 0.0 0.0016424842940025272 -0.00082885534273296384 0.0 -0.0038969268337957427 -0.022389857156589674 0.0 -0.0017863095294875422 0.020895028584210312 0.0 -0.0032307580597856437 0.015660945355512084 0.0 0.0049175184800689872 0.027193089671664599 0.0 0.00049918271349931088 0.0058026516108958173 0.0 -0.015584183070202616 0.015452273971964043 0.0 0.0064239589578176269 -0.026703596442914427 0.0 0.0 0.0 0.0 -0.0070777777841840653 -0.0098135680913172697 0.0 -0.021414890453735153 -0.043420928482909557 0.0 0.0075231887451381587 0.016168951946719256 0.0 -0.0026737464679314343 -0.010830762164632454 0.0 -0.005092575397592225 0.012354133114459131 0.0 -0.0052019797148625119 0.018713895298226042 0.0 0.002047215225429902 0.019337967715503796 0.0 0.0053792236922680431 -0.0087772380642162397 0.0 -0.025594338575599392 0.066456080880981122 0.0 -0.0096594111498080441 0.0043555725890180837 0.0 -0.0051437585825845813 0.013722470728020044 0.0 0.0041370622081297742 -0.04176038984615197 0.0 -0.0086879109179776835 0.021556018228480231 0.0 0.049284515268858096 -0.018827384658652298 0.0 </DataArray>
<DataArray Name="radii" format="ascii" type="Float32">1 1 1 1 1 1 1 1 1 1 1 1 1 1 1 1 1 1 1 1 1 1 1 1 1 1 1 1 1 1 1 1 </DataArray>
</PointData>
<CellData/>
</Piece>
</UnstructuredGrid>
</VTKFile>
