<?xml version="1.0" ?>
<VTKFile byte_order="LittleEndian" type="UnstructuredGrid" version="0.1">
<UnstructuredGrid>
<Piece NumberOfCells="0" NumberOfPoints="128">
<Points>
<DataArray NumberOfComponents="3" format="ascii" type="Float32">1.2 2.2935424468642966 2 11.134865139358645 2.5105237912632825 2 28.551167504266267 5.284858833420456 2 47.280811036521875 6.1403302395773487 2 52.292012074089648 1.2 2 73.968822795556989 2.5616839247680416 2 84.39349513582529 1.2 2 91.545525565827276 1.2 2 3.8853806002625486 6.1839100674346028 2 12.596781977588622 1.2 2 28.546977330045916 1.2 2 48.834149123339941 7.4648288794499402 2 51.874703398776141 8.2992699652837842 2 76.804858600466261 4.8332060589548824 2 87.688546757162001 8.3389742392801427 2 96.059496356070042 3.752040034190657 2 2.5803236150635667 1.2 2 13.059773368606916 8.850543589805584 2 27.315500880129054 1.2 2 48.471923691285923 1.2 2 52.264908323110454 6.1823887409712768 2 74.579631242571679 6.2655488697136823 2 82.977754812262006 5.9813104419584544 2 92.113163103668001 5.7859496340606071 2 2.2465507377563938 4.4024757012461446 2 8.00202262789945 2.3529267643602485 2 29.203542388933389 4.0223798356211997 2 44.34004846637356 7.351781631461674 2 53.328155778328131 4.8797369187633324 2 75.583787691153304 1.2 2 84.520869605109283 6.0349767098076672 2 93.663007058970635 1.2 2 1.2 1.2 2 12.556820799245745 5.2253356467986078 2 25.054085577647601 5.7801274923157537 2 48.909227482576746 5.7187620450650405 2 51.514263585795995 4.422216039769391 2 75.084270304422219 2.9431458177497052 2 83.253726336746524 1.2 2 94.377457629340938 4.3991776018149036 2 3.2208458198932197 8.4787574869530875 2 11.294244817073034 1.2 2 27.385791806806544 3.8606235364028625 2 46.211522604198059 7.3766601992872687 2 50.011638260648553 9.1830610468493248 2 78.475075395074725 4.382036878498563 2 84.462340435008045 7.8264714353670177 2 96.800599825487069 1.2 2 3.6599122628510674 2.7239244732496171 2 10.28202806379633 6.6859764155872732 2 25.270338257180619 1.2 2 51.11276337539519 1.2 2 50.321114388789525 3.3335457828225077 2 76.979553539442378 7.8912798014610877 2 84.437244740296407 4.253749080898209 2 91.748233884233017 3.6210917255562713 2 1.2 7.810319621966153 2 8.80092989453596 1.2 2 29.604218230758399 1.2 2 41.258370629410457 7.6778126257343366 2 55.509748563828225 7.945763012498821 2 77.686421047587842 1.2 2 87.530279620734248 5.326472604885673 2 94.696819875216434 1.2 2 1.2 3.6449902148761999 2 12.337336041384928 3.7823065978626369 2 28.134442172041723 7.0442568815275397 2 46.076965597854986 4.5793935619886419 2 52.402346214829421 2.4426680276184491 2 74.518706839109484 1.2 2 84.751571821700466 2.4010933070009814 2 91.293286807794757 2.5384970802705333 2 3.4677045332456293 4.2430500428003164 2 12.514804378804675 2.3509479587406328 2 28.887707899736867 2.9289068426452771 2 47.515304172911883 8.7927060823613115 2 53.57371694404695 7.9625881344584428 2 77.17073566907213 3.4134495946087817 2 85.836516674862594 9.1746390720331448 2 97.127183238165983 2.6515559979163421 2 3.7873162406918146 1.2 2 10.734661470613934 8.7174249626388658 2 26.5691689043278 2.9515904650535121 2 49.219125360816832 2.0096539286588002 2 50.528076467929694 5.2723936469418939 2 75.399309318947999 4.5521196903544903 2 82.762831341244151 4.5881771498803552 2 90.482503446320109 6.6586828169751611 2 2.5598837147178251 6.3753368837609141 2 8.9928159684147335 3.2901114600465005 2 30.682874924782734 4.4265849424838457 2 43.037694978977818 8.7553161458301449 2 54.091360984068189 6.2767104453109654 2 76.613625028343279 1.2 2 85.840774366373338 4.987735127965494 2 92.606348991175977 1.2 2 2.5595640633188612 2.5460229130667855 2 11.037834918939918 5.309083827750972 2 26.979991345788445 5.4236215985607661 2 49.245570465755833 4.1404355295832662 2 52.555068227628603 3.5641944188793047 2 74.10096551946674 4.2805009249735768 2 81.303728371758808 2.4130914732446072 2 94.149611261459057 2.8485038456630316 2 5.0442816030869277 7.7140958490113727 2 10.011354150785808 1.2 2 27.811518096603777 2.2597378823610317 2 45.278277270421754 9.3310758758815453 2 50.58948795757442 6.9362413033567849 2 77.942777079814149 2.4461260210774238 2 82.692564826005025 7.9011279274506903 2 95.4413270333024 2.6407001555017464 2 4.6650366804560832 4.4088432304783618 2 12.170806568235085 7.0354727576226441 2 26.288265702019253 1.2 2 49.935409304273009 1.2 2 50.938923056376446 2.5137761121066258 2 75.98278850843937 6.4772678309441609 2 83.478810466368842 3.2882588558634618 2 92.986657819759003 2.7011740354118312 2 1.2 5.6288672811489979 2 9.7486070728313283 2.3874174888365571 2 30.730225423621867 1.2 2 40.995832979094537 9.6839658333184211 2 54.703282646315863 9.8446719185994152 2 76.156831044754071 2.7095001448611664 2 86.330152624994241 6.8470467524701624 2 95.762763736596682 1.2 2 </DataArray>
</Points>
<Cells>
<DataArray Name="connectivity" format="ascii" type="Int32">0</DataArray>
<DataArray Name="offsets" format="ascii" type="Int32">0</DataArray>
<DataArray Name="types" format="ascii" type="UInt8">1</DataArray>
</Cells>
<PointData>
<DataArray Name="Points" NumberOfComponents="3" format="ascii" type="Float32">1.2 2.2935424468642966 2 11.134865139358645 2.5105237912632825 2 28.551167504266267 5.284858833420456 2 47.280811036521875 6.1403302395773487 2 52.292012074089648 1.2 2 73.968822795556989 2.5616839247680416 2 84.39349513582529 1.2 2 91.545525565827276 1.2 2 3.8853806002625486 6.1839100674346028 2 12.596781977588622 1.2 2 28.546977330045916 1.2 2 48.834149123339941 7.4648288794499402 2 51.874703398776141 8.2992699652837842 2 76.804858600466261 4.8332060589548824 2 87.688546757162001 8.3389742392801427 2 96.059496356070042 3.752040034190657 2 2.5803236150635667 1.2 2 13.059773368606916 8.850543589805584 2 27.315500880129054 1.2 2 48.471923691285923 1.2 2 52.264908323110454 6.1823887409712768 2 74.579631242571679 6.2655488697136823 2 82.977754812262006 5.9813104419584544 2 92.113163103668001 5.7859496340606071 2 2.2465507377563938 4.4024757012461446 2 8.00202262789945 2.3529267643602485 2 29.203542388933389 4.0223798356211997 2 44.34004846637356 7.351781631461674 2 53.328155778328131 4.8797369187633324 2 75.583787691153304 1.2 2 84.520869605109283 6.0349767098076672 2 93.663007058970635 1.2 2 1.2 1.2 2 12.556820799245745 5.2253356467986078 2 25.054085577647601 5.7801274923157537 2 48.909227482576746 5.7187620450650405 2 51.514263585795995 4.422216039769391 2 75.084270304422219 2.9431458177497052 2 83.253726336746524 1.2 2 94.377457629340938 4.3991776018149036 2 3.2208458198932197 8.4787574869530875 2 11.294244817073034 1.2 2 27.385791806806544 3.8606235364028625 2 46.211522604198059 7.3766601992872687 2 50.011638260648553 9.1830610468493248 2 78.475075395074725 4.382036878498563 2 84.462340435008045 7.8264714353670177 2 96.800599825487069 1.2 2 3.6599122628510674 2.7239244732496171 2 10.28202806379633 6.6859764155872732 2 25.270338257180619 1.2 2 51.11276337539519 1.2 2 50.321114388789525 3.3335457828225077 2 76.979553539442378 7.8912798014610877 2 84.437244740296407 4.253749080898209 2 91.748233884233017 3.6210917255562713 2 1.2 7.810319621966153 2 8.80092989453596 1.2 2 29.604218230758399 1.2 2 41.258370629410457 7.6778126257343366 2 55.509748563828225 7.945763012498821 2 77.686421047587842 1.2 2 87.530279620734248 5.326472604885673 2 94.696819875216434 1.2 2 1.2 3.6449902148761999 2 12.337336041384928 3.7823065978626369 2 28.134442172041723 7.0442568815275397 2 46.076965597854986 4.5793935619886419 2 52.402346214829421 2.4426680276184491 2 74.518706839109484 1.2 2 84.751571821700466 2.4010933070009814 2 91.293286807794757 2.5384970802705333 2 3.4677045332456293 4.2430500428003164 2 12.514804378804675 2.3509479587406328 2 28.887707899736867 2.9289068426452771 2 47.515304172911883 8.7927060823613115 2 53.57371694404695 7.9625881344584428 2 77.17073566907213 3.4134495946087817 2 85.836516674862594 9.1746390720331448 2 97.127183238165983 2.6515559979163421 2 3.7873162406918146 1.2 2 10.734661470613934 8.7174249626388658 2 26.5691689043278 2.9515904650535121 2 49.219125360816832 2.0096539286588002 2 50.528076467929694 5.2723936469418939 2 75.399309318947999 4.5521196903544903 2 82.762831341244151 4.5881771498803552 2 90.482503446320109 6.6586828169751611 2 2.5598837147178251 6.3753368837609141 2 8.9928159684147335 3.2901114600465005 2 30.682874924782734 4.4265849424838457 2 43.037694978977818 8.7553161458301449 2 54.091360984068189 6.2767104453109654 2 76.613625028343279 1.2 2 85.840774366373338 4.987735127965494 2 92.606348991175977 1.2 2 2.5595640633188612 2.5460229130667855 2 11.037834918939918 5.309083827750972 2 26.979991345788445 5.4236215985607661 2 49.245570465755833 4.1404355295832662 2 52.555068227628603 3.5641944188793047 2 74.10096551946674 4.2805009249735768 2 81.303728371758808 2.4130914732446072 2 94.149611261459057 2.8485038456630316 2 5.0442816030869277 7.7140958490113727 2 10.011354150785808 1.2 2 27.811518096603777 2.2597378823610317 2 45.278277270421754 9.3310758758815453 2 50.58948795757442 6.9362413033567849 2 77.942777079814149 2.4461260210774238 2 82.692564826005025 7.9011279274506903 2 95.4413270333024 2.6407001555017464 2 4.6650366804560832 4.4088432304783618 2 12.170806568235085 7.0354727576226441 2 26.288265702019253 1.2 2 49.935409304273009 1.2 2 50.938923056376446 2.5137761121066258 2 75.98278850843937 6.4772678309441609 2 83.478810466368842 3.2882588558634618 2 92.986657819759003 2.7011740354118312 2 1.2 5.6288672811489979 2 9.7486070728313283 2.3874174888365571 2 30.730225423621867 1.2 2 40.995832979094537 9.6839658333184211 2 54.703282646315863 9.8446719185994152 2 76.156831044754071 2.7095001448611664 2 86.330152624994241 6.8470467524701624 2 95.762763736596682 1.2 2 </DataArray>
<DataArray Name="forces" NumberOfComponents="3" format="ascii" type="Float32">-1.5236861891607711 0.42960626303642085 0.0 -0.070782143923287411 0.45965671229125837 0.0 0.021049870255443026 0.50263559203368735 0.0 -0.014930753026802801 0.44448126679499833 0.0 -0.0052217871137540395 -1.7004338748993761 0.0 0.053204498001831579 0.60325058540918763 0.0 -0.034746340596985587 -1.7437101768291268 0.0 0.011168324520500289 -1.3617493565347454 0.0 -0.003124526148133272 0.50731428475867224 0.0 0.010139977931719668 -1.8956045986550889 0.0 0.00526104438001046 -1.7652389431580378 0.0 -0.10149016810766576 0.41180171173482738 0.0 -0.03425766259850338 0.61179498824602263 0.0 -0.067676561951775238 0.4208097468012853 0.0 0.12058235042951637 0.64044929239744941 0.0 0.051185338765007471 0.43452954791566745 0.0 0.034635145344238116 -1.8879565288148752 0.0 0.021346568013335399 0.65126938354384756 0.0 0.079295920293582567 -1.6216309506149411 0.0 0.00099679911665007115 -1.9204945856563451 0.0 0.0017857623425072688 0.55051228470252989 0.0 -0.017737598118553466 0.61664199074312931 0.0 0.035487665644470257 0.48293861833703844 0.0 -0.0024206836127487752 0.46997998268559754 0.0 -0.0080648610801061782 0.51856878060079403 0.0 -0.041846746607682839 0.42905093811127804 0.0 -0.0021995888749019032 0.48941277414103551 0.0 0.057391611293579711 0.39767036896402835 0.0 -0.012154268388586076 0.41542212684432278 0.0 -0.0041450268292758663 -1.4848727519208744 0.0 0.057508561740521214 0.39052237606539442 0.0 -0.01161339341013401 -1.4113325001290216 0.0 -1.368185524187826 -1.6488688767136572 0.0 -0.059761188020032649 0.48870528260156187 0.0 -0.026157784857000266 0.55459682338893301 0.0 0.041983979295115492 0.37045793838571994 0.0 0.033269573471291433 0.51922760283244007 0.0 0.02706613172167005 0.4467643171455396 0.0 0.014930455387447229 -1.8225387723852939 0.0 -0.060205917655253821 0.54764131998456222 0.0 -0.08274146893721096 0.43938425743039589 0.0 -0.017932510510637711 -1.8439388183711187 0.0 -0.060862230548181906 0.51826525715456706 0.0 0.091236629323108318 0.49347886121462864 0.0 -0.14569285798445419 0.48670134205097015 0.0 -0.040249048192357639 0.4865591707609872 0.0 0.031908157670559156 0.40835016963067516 0.0 -0.039970092322613171 -1.2298461404703793 0.0 -0.051372122004285314 0.53823773972718136 0.0 0.030185513030934474 0.48350366642435372 0.0 0.07022941885728673 -1.2760028725503314 0.0 0.025368146598072294 -1.74150055275116 0.0 0.020416184644299618 0.45881711884470666 0.0 0.055050165658841743 0.54863301382813789 0.0 0.053085467256590912 0.50308148096563454 0.0 0.037468109859224441 0.3761313574024322 0.0 -0.54109276617705659 0.44089160250745862 0.0 0.027719490774070432 -1.8285288939494677 0.0 -0.0072597087477395128 -1.6361477477230986 0.0 0.0259840707971686 0.50286267542976948 0.0 0.023018150388007669 0.48085020925263233 0.0 0.0098232406227610758 -1.5235577863679264 0.0 0.010860004795658185 0.45694783708438158 0.0 -0.010143951530604545 -1.4037649592453978 0.0 -1.4629634938160545 0.37561512439818001 0.0 0.092257619829933024 0.45158749766840867 0.0 -0.035139608031374392 0.51623137956481413 0.0 0.018129973919894016 0.4312542097991201 0.0 -0.024226031779432389 0.46894925579708846 0.0 0.0055431707182035939 -1.5775152094305904 0.0 0.013232554002614944 0.48832839198304157 0.0 -0.016478586380654137 0.47136901055560476 0.0 0.0090026415621393407 0.56087418157433 0.0 -0.05022012776188689 0.4107129050560272 0.0 -0.010654635774301813 0.48881529158076442 0.0 0.045048954892769069 0.70420953802765685 0.0 0.012435499365860303 0.46037744016920035 0.0 0.0011698069489152196 0.43113665664509238 0.0 0.00027775897903896136 0.50514940717700674 0.0 0.0055937902118819993 0.41093845222523284 0.0 0.025248124048765752 -1.8610109365041041 0.0 0.019861174105387625 0.52823638349092539 0.0 -0.058801593558551093 0.50832939965026891 0.0 -0.038138253131631439 0.31529176957881344 0.0 0.011292422647163024 0.49071744344554391 0.0 -0.018942593397070884 0.48942483282905502 0.0 -0.04465604561897446 0.43795592002283323 0.0 -0.044265218383703439 0.44172927964782061 0.0 -0.042962406364464023 0.54654561971775095 0.0 -0.053594484342974535 0.4613427879865768 0.0 -0.011551085878411999 0.4512554558253038 0.0 0.0041396814491737599 0.53259503198807678 0.0 -0.010331573243886005 0.44067977424121579 0.0 0.011795805885057853 -1.3583337505989319 0.0 0.12403702729412391 0.45949127857399141 0.0 -0.0071973301328498718 -1.3073246860092658 0.0 -0.010216036802851977 0.46996812797881943 0.0 -0.030755007465976869 0.47900771350711091 0.0 0.013605285988954718 0.44983878041064018 0.0 0.029170754137933685 0.37347316566756439 0.0 -0.010023262480572781 0.40864811431711578 0.0 0.025746995241355333 0.56954414040826218 0.0 0.055028543176023424 0.46633397476577521 0.0 0.019912164429970916 0.49215649547576484 0.0 0.038137494265284677 0.60160789618202537 0.0 -0.0050651539060499462 -1.7805322199825966 0.0 -0.039791676158550726 0.57553339214000254 0.0 -0.025200380969954944 0.44645917324267059 0.0 -0.019815091954361343 0.53157209072029477 0.0 0.050412208474687747 0.468994231849303 0.0 0.0082554524013418729 0.57039375335458453 0.0 -0.051436646919853751 0.51112062913154288 0.0 0.068463496576751964 0.47307671823586095 0.0 0.0062432038937455803 0.53588775269547251 0.0 0.075587742726527685 -1.4868771779529444 0.0 0.053938327881611736 -1.8182361531490456 0.0 -0.057699261040290162 0.45562030240572216 0.0 0.031867899925474841 0.48182051435308709 0.0 0.13722830797239016 0.44832719468850057 0.0 0.059570332634683726 0.42519539393835537 0.0 -1.254283261236647 0.38641207995164734 0.0 -0.05002382061006283 0.49097783882500279 0.0 0.016824323878774416 -1.5039124431780215 0.0 -0.071494207643854557 0.510956013915838 0.0 -0.026130999518429926 0.487170166885593 0.0 0.023143044416901182 0.42590201123053961 0.0 0.056977360845746464 0.56665578737058531 0.0 -0.033698910903925766 -1.2699683146308005 0.0 </DataArray>
<DataArray Name="radii" format="ascii" type="Float32">1.2 1.2 1.2 1.2 1.2 1.2 1.2 1.2 1.2 1.2 1.2 1.2 1.2 1.2 1.2 1.2 1.2 1.2 1.2 1.2 1.2 1.2 1.2 1.2 1.2 1.2 1.2 1.2 1.2 1.2 1.2 1.2 1.2 1.2 1.2 1.2 1.2 1.2 1.2 1.2 1.2 1.2 1.2 1.2 1.2 1.2 1.2 1.2 1.2 1.2 1.2 1.2 1.2 1.2 1.2 1.2 1.2 1.2 1.2 1.2 1.2 1.2 1.2 1.2 1.2 1.2 1.2 1.2 1.2 1.2 1.2 1.2 1.2 1.2 1.2 1.2 1.2 1.2 1.2 1.2 1.2 1.2 1.2 1.2 1.2 1.2 1.2 1.2 1.2 1.2 1.2 1.2 1.2 1.2 1.2 1.2 1.2 1.2 1.2 1.2 1.2 1.2 1.2 1.2 1.2 1.2 1.2 1.2 1.2 1.2 1.2 1.2 1.2 1.2 1.2 1.2 1.2 1.2 1.2 1.2 1.2 1.2 1.2 1.2 1.2 1.2 1.2 1.2 </DataArray>
</PointData>
<CellData/>
</Piece>
</UnstructuredGrid>
</VTKFile>
