<?xml version="1.0" ?>
<VTKFile byte_order="LittleEndian" type="UnstructuredGrid" version="0.1">
<UnstructuredGrid>
<Piece NumberOfCells="0" NumberOfPoints="40">
<Points>
<DataArray NumberOfComponents="3" format="ascii" type="Float32">20.804545511851746 1.2 2 25.942934900515844 3.0482325712876155 2 37.396121303327718 5.6477271834947516 2 64.628645012495042 1.2 2 88.662554125395488 6.4221053397161691 2 18.670248682183676 1.2 2 22.431120504530647 6.6121476108655397 2 35.520129308275493 7.0736407785322699 2 62.451385675362147 4.4441226054078546 2 88.22400496445681 1.2 2 19.073233546282882 6.1958530010789952 2 27.094172699636424 7.0531543872445077 2 35.035245219953097 1.2 2 64.627164404372223 4.423047030994316 2 89.439423740804244 2.6695522603219661 2 16.863918365941018 1.2 2 22.913311052434146 1.2 2 35.479216340647085 4.8907304969068814 2 62.522191687178967 1.2 2 85.716433982848343 3.0546613780403846 2 21.792388992375187 2.7632979908851065 2 24.230170633906493 5.0297634613151816 2 37.058932414781275 3.4025983782201048 2 66.668258146057596 1.2 2 89.792794841387519 4.5935654202344613 2 19.74480611901566 2.7023464023960857 2 22.462493239614922 4.4734924924340689 2 37.760875453078071 7.8236435401973763 2 60.444114722814973 4.6464641247060561 2 87.67998854327783 3.1796983866092465 2 20.535485749994564 4.6728229764119833 2 24.74794269218366 7.1679854625361248 2 36.940450554582497 1.2 2 65.699629613861376 2.8333323807520516 2 90.290912823656086 1.2 2 15.655953270678468 2.4291955730518051 2 23.94159606583607 2.9268247663359177 2 35.281868639698061 2.8995688751330349 2 63.560992813864097 2.7232301630496036 2 86.429229432291052 1.2 2 </DataArray>
</Points>
<Cells>
<DataArray Name="connectivity" format="ascii" type="Int32">0</DataArray>
<DataArray Name="offsets" format="ascii" type="Int32">0</DataArray>
<DataArray Name="types" format="ascii" type="UInt8">1</DataArray>
</Cells>
<PointData>
<DataArray Name="Points" NumberOfComponents="3" format="ascii" type="Float32">20.804545511851746 1.2 2 25.942934900515844 3.0482325712876155 2 37.396121303327718 5.6477271834947516 2 64.628645012495042 1.2 2 88.662554125395488 6.4221053397161691 2 18.670248682183676 1.2 2 22.431120504530647 6.6121476108655397 2 35.520129308275493 7.0736407785322699 2 62.451385675362147 4.4441226054078546 2 88.22400496445681 1.2 2 19.073233546282882 6.1958530010789952 2 27.094172699636424 7.0531543872445077 2 35.035245219953097 1.2 2 64.627164404372223 4.423047030994316 2 89.439423740804244 2.6695522603219661 2 16.863918365941018 1.2 2 22.913311052434146 1.2 2 35.479216340647085 4.8907304969068814 2 62.522191687178967 1.2 2 85.716433982848343 3.0546613780403846 2 21.792388992375187 2.7632979908851065 2 24.230170633906493 5.0297634613151816 2 37.058932414781275 3.4025983782201048 2 66.668258146057596 1.2 2 89.792794841387519 4.5935654202344613 2 19.74480611901566 2.7023464023960857 2 22.462493239614922 4.4734924924340689 2 37.760875453078071 7.8236435401973763 2 60.444114722814973 4.6464641247060561 2 87.67998854327783 3.1796983866092465 2 20.535485749994564 4.6728229764119833 2 24.74794269218366 7.1679854625361248 2 36.940450554582497 1.2 2 65.699629613861376 2.8333323807520516 2 90.290912823656086 1.2 2 15.655953270678468 2.4291955730518051 2 23.94159606583607 2.9268247663359177 2 35.281868639698061 2.8995688751330349 2 63.560992813864097 2.7232301630496036 2 86.429229432291052 1.2 2 </DataArray>
<DataArray Name="forces" NumberOfComponents="3" format="ascii" type="Float32">0.0045853301708072003 -0.93032432165745593 0.0 0.0034331128787468135 0.22041732102943332 0.0 -0.01911731670108241 0.2844294338192831 0.0 -0.002121257178979874 -0.82210636546298177 0.0 -0.0058841522714731254 0.31799431088486296 0.0 0.0059916409480003652 -0.44906283464831193 0.0 -0.027289573850274293 0.26190036385081028 0.0 -0.067875105368052774 0.23301665538138985 0.0 -0.014002629378456116 0.2673919637552975 0.0 0.050758245472863006 -0.72271454097413934 0.0 -0.035625524026881017 0.31643140045433138 0.0 0.037922515276555428 0.2620338948188014 0.0 -0.046643221902045784 -0.76522895938184265 0.0 -0.00396526725086431 0.29881718469809931 0.0 0.035319422261710642 0.32594285379587162 0.0 -0.0039024388901670037 -0.4878368563899893 0.0 0.00063855899355871881 -0.72780709418133971 0.0 -0.032175737548889659 0.21836997938586658 0.0 0.010804492014853451 -0.86524270296498407 0.0 0.0018253344668458238 0.22657302984813388 0.0 -0.017434969725468125 0.22656039034334788 0.0 -0.047569772307764602 0.22732635412765803 0.0 -0.022472130307001792 0.28121275602594131 0.0 0.0013623225177298859 -0.87954969079645084 0.0 0.053820617775427765 0.32305001203826877 0.0 -0.031835290213825654 0.21989468360543235 0.0 -0.032709317419652856 0.24148852190596631 0.0 -0.069540952226403718 0.29224899623663225 0.0 -0.012684735046056272 0.23941980698676835 0.0 -0.014209871449282714 0.18417281332995294 0.0 -0.015912384772144128 0.26132847417722727 0.0 0.012236164323381135 0.20075416072614335 0.0 -0.0034777717345446657 -0.34329693064642408 0.0 -0.012530041941087755 0.23221325138839302 0.0 -0.026774362424668824 -0.8417742748898045 0.0 -0.040316579760715177 0.25291788152094119 0.0 -0.010532201951886505 0.21782153891281195 0.0 0.06679713853917213 0.17151441263091088 0.0 0.0043010154786919386 0.25342664845264407 0.0 0.032265717052854449 -0.43717342937899767 0.0 </DataArray>
<DataArray Name="radii" format="ascii" type="Float32">1.2 1.2 1.2 1.2 1.2 1.2 1.2 1.2 1.2 1.2 1.2 1.2 1.2 1.2 1.2 1.2 1.2 1.2 1.2 1.2 1.2 1.2 1.2 1.2 1.2 1.2 1.2 1.2 1.2 1.2 1.2 1.2 1.2 1.2 1.2 1.2 1.2 1.2 1.2 1.2 </DataArray>
</PointData>
<CellData/>
</Piece>
</UnstructuredGrid>
</VTKFile>
