<?xml version="1.0" ?>
<VTKFile byte_order="LittleEndian" type="UnstructuredGrid" version="0.1">
<UnstructuredGrid>
<Piece NumberOfCells="0" NumberOfPoints="45">
<Points>
<DataArray NumberOfComponents="3" format="ascii" type="Float32">0 0 0 6.4862217038085408 1 2 16.572865931258111 4.4218995108109631 2 32.099924258606336 4.2369230302188585 2 41.266774199213032 3.9327590793820333 2 41.714980814270696 2.0371598839974463 2 53.492206730802167 1 2 60.254203880321541 1 2 69.626551667348394 1.8598309498814976 2 71.594696367348632 1 2 79.385987111648646 1.2304016231977715 2 97.024226082102231 3.6062990257724845 2 8.2661739487837309 4.4995051180329462 2 14.386079771364793 1 2 32.004042315740229 1 2 39.876828477237432 1.5951436653907047 2 45.036317844156237 2.1767903148812637 2 57.336822530260235 1 2 60.968234394318365 3.8379258964105727 2 67.29247052636596 4.6742191861392079 2 72.611204589369734 4.4485147928655913 2 78.316581318741299 4.3049007753094122 2 97.985017051286306 1 2 7.6651263439499422 2.6335608897937508 2 14.791618584088779 5.3414862005411248 2 29.855038253558945 4.3034041301680306 2 39.4498961699258 4.8051444759591107 2 43.471438345053144 1 2 55.501803999344361 1.5081375136795296 2 58.818792786619412 2.3636390165886501 2 67.766869827405728 1 2 71.215121116016292 2.9330543697268077 2 81.368427168174946 1 2 95.917029316428199 5.2718799455084291 2 9.6184543871978807 2.9783253588338279 2 15.159013829970039 2.8394852401916388 2 33.885804861342926 1 2 37.89411236984634 1 2 46.642216100002223 1 2 56.829048527781467 2.9213768036482679 2 62.740065880624819 4.7656422659118194 2 66.831285702161793 2.723830080528296 2 72.423941692325187 6.3423860454702696 2 80.310014969883213 4.1974221760867483 2 99.0 2.6973961278717913 2 </DataArray>
</Points>
<Cells>
<DataArray Name="connectivity" format="ascii" type="Int32">0</DataArray>
<DataArray Name="offsets" format="ascii" type="Int32">0</DataArray>
<DataArray Name="types" format="ascii" type="UInt8">1</DataArray>
</Cells>
<PointData>
<DataArray Name="Points" NumberOfComponents="3" format="ascii" type="Float32">0 0 0 6.4862217038085408 1 2 16.572865931258111 4.4218995108109631 2 32.099924258606336 4.2369230302188585 2 41.266774199213032 3.9327590793820333 2 41.714980814270696 2.0371598839974463 2 53.492206730802167 1 2 60.254203880321541 1 2 69.626551667348394 1.8598309498814976 2 71.594696367348632 1 2 79.385987111648646 1.2304016231977715 2 97.024226082102231 3.6062990257724845 2 8.2661739487837309 4.4995051180329462 2 14.386079771364793 1 2 32.004042315740229 1 2 39.876828477237432 1.5951436653907047 2 45.036317844156237 2.1767903148812637 2 57.336822530260235 1 2 60.968234394318365 3.8379258964105727 2 67.29247052636596 4.6742191861392079 2 72.611204589369734 4.4485147928655913 2 78.316581318741299 4.3049007753094122 2 97.985017051286306 1 2 7.6651263439499422 2.6335608897937508 2 14.791618584088779 5.3414862005411248 2 29.855038253558945 4.3034041301680306 2 39.4498961699258 4.8051444759591107 2 43.471438345053144 1 2 55.501803999344361 1.5081375136795296 2 58.818792786619412 2.3636390165886501 2 67.766869827405728 1 2 71.215121116016292 2.9330543697268077 2 81.368427168174946 1 2 95.917029316428199 5.2718799455084291 2 9.6184543871978807 2.9783253588338279 2 15.159013829970039 2.8394852401916388 2 33.885804861342926 1 2 37.89411236984634 1 2 46.642216100002223 1 2 56.829048527781467 2.9213768036482679 2 62.740065880624819 4.7656422659118194 2 66.831285702161793 2.723830080528296 2 72.423941692325187 6.3423860454702696 2 80.310014969883213 4.1974221760867483 2 99.0 2.6973961278717913 2 </DataArray>
<DataArray Name="forces" NumberOfComponents="3" format="ascii" type="Float32">0 0 0 -0.016423824241778125 -0.023033337031814972 0.0 0.0037836413978143903 0.0026668676911081241 0.0 0.0 0.0 0.0 0.00918108615684444 -0.0044063278499637606 0.0 -0.040919654228858481 0.025588820341895184 0.0 -0.048408326485255414 -0.046322602627081044 0.0 -0.013639951131308795 -0.020498331637710226 0.0 0.040602699202477548 0.019525830407449308 0.0 0.0018359818987521647 -0.010310144028552716 0.0 -0.040132153285288574 -0.010248213466635426 0.0 0.0 0.0 0.0 0.0 0.0 0.0 -0.0055088787813203904 -0.013322264477224758 0.0 0.036919590791829923 -0.051275605556009747 0.0 0.04806728913461307 0.015283379453735318 0.0 -0.0044391051786785811 0.020330294584285695 0.0 -0.017077214007200001 -0.018812879861299626 0.0 0.0 0.0 0.0 0.0020468687042194179 0.0088377581258319553 0.0 -0.013690409210993758 0.077658763613459497 0.0 0.0051280762755429692 0.034070278771384611 0.0 0.014966978864539291 -0.032048584510275369 0.0 0.010127273886026685 0.031637577241092452 0.0 -0.0057623917357646397 0.0029941913465231398 0.0 -0.0002087382978828161 0.00038842356423330563 0.0 -0.0086552145124306427 0.0044656606173664667 0.0 0.029841375084875513 -0.033964420634846976 0.0 0.059952973336536888 0.017300765910750707 0.0 0.009848936483867532 0.027085502450295229 0.0 -0.035403183458706189 -0.028812752330492773 0.0 -0.02206483433998797 -0.010167936325115132 0.0 0.012986532783493793 -0.0091389501052125208 0.0 0.0 0.0 0.0 -0.00072515763051913076 0.001001853197671728 0.0 0.0055088787813203904 0.013322264477224758 0.0 -0.053988911775444848 0.0 0.0 -0.048796414534912715 -0.015443467191575499 0.0 -0.0015841263660694507 -0.027302268824259575 0.0 0.0 0.0 0.0 0.0 0.0 0.0 -0.0072463844479907762 0.0004491637972115093 0.0 -0.0015531512302632028 0.015114236770772648 0.0 0.0036416585970988707 -0.00011581502504929531 0.0 0.013107129223612136 0.021322409019881822 0.0 </DataArray>
<DataArray Name="radii" format="ascii" type="Float32">0 1 1 1 1 1 1 1 1 1 1 1 1 1 1 1 1 1 1 1 1 1 1 1 1 1 1 1 1 1 1 1 1 1 1 1 1 1 1 1 1 1 1 1 1 </DataArray>
</PointData>
<CellData/>
</Piece>
</UnstructuredGrid>
</VTKFile>
