<?xml version="1.0" ?>
<VTKFile byte_order="LittleEndian" type="UnstructuredGrid" version="0.1">
<UnstructuredGrid>
<Piece NumberOfCells="0" NumberOfPoints="16">
<Points>
<DataArray NumberOfComponents="3" format="ascii" type="Float32">2.43518365637027 1.4 2 12.476491477978799 2.5815387089556743 2 27.090654347709826 1.4 2 48.883469188648533 1.4 2 51.628808522488271 1.4 2 74.567111957848809 1.9494841842484425 2 83.215895549494974 1.4 2 91.48174201733903 1.4 2 4.8493333762846316 2.8138611062443877 2 10.043761805894334 1.4 2 29.850056212610511 1.4 2 47.467372331226315 3.8383589347262337 2 52.853869133818328 3.9147702760238512 2 77.302059942898808 1.4 2 84.647155020142264 3.8463423624054425 2 94.231147705938653 1.4 2 </DataArray>
</Points>
<Cells>
<DataArray Name="connectivity" format="ascii" type="Int32">0</DataArray>
<DataArray Name="offsets" format="ascii" type="Int32">0</DataArray>
<DataArray Name="types" format="ascii" type="UInt8">1</DataArray>
</Cells>
<PointData>
<DataArray Name="Points" NumberOfComponents="3" format="ascii" type="Float32">2.43518365637027 1.4 2 12.476491477978799 2.5815387089556743 2 27.090654347709826 1.4 2 48.883469188648533 1.4 2 51.628808522488271 1.4 2 74.567111957848809 1.9494841842484425 2 83.215895549494974 1.4 2 91.48174201733903 1.4 2 4.8493333762846316 2.8138611062443877 2 10.043761805894334 1.4 2 29.850056212610511 1.4 2 47.467372331226315 3.8383589347262337 2 52.853869133818328 3.9147702760238512 2 77.302059942898808 1.4 2 84.647155020142264 3.8463423624054425 2 94.231147705938653 1.4 2 </DataArray>
<DataArray Name="forces" NumberOfComponents="3" format="ascii" type="Float32">-0.021459004481103324 -0.012611323201173774 0.0 -0.024941844718273681 0.044546276323119277 0.0 0.011555767141437346 -0.022253226786541513 0.0 0.0146674809821197 -0.02135646310559702 0.0 -0.011903999913192676 -0.041891140191478188 0.0 -0.0094333056701216868 0.0020083811250942965 0.0 -0.022697921636876117 0.0 0.0 0.016616671753098444 0.0 0.0 -0.0065551350498168903 0.029136249368363502 0.0 0.027742686433492151 -0.059648921298556284 0.0 -0.010042929926699515 -0.025420378491838699 0.0 0.006578056908731018 0.054562748022909863 0.0 0.019847283796293736 0.041891140191478188 0.0 -0.0054621065319679675 -0.022825437071305289 0.0 -0.021259924297188156 0.039325231662315524 0.0 0.014406813133671786 -0.044799559372246417 0.0 </DataArray>
<DataArray Name="radii" format="ascii" type="Float32">1.4 1.4 1.4 1.4 1.4 1.4 1.4 1.4 1.4 1.4 1.4 1.4 1.4 1.4 1.4 1.4 </DataArray>
</PointData>
<CellData/>
</Piece>
</UnstructuredGrid>
</VTKFile>
