<?xml version="1.0" ?>
<VTKFile byte_order="LittleEndian" type="UnstructuredGrid" version="0.1">
<UnstructuredGrid>
<Piece NumberOfCells="0" NumberOfPoints="80">
<Points>
<DataArray NumberOfComponents="3" format="ascii" type="Float32">20.237719234768871 1.2 2 25.676383778640023 4.4095662339588468 2 37.940662275398147 6.5265735989872615 2 64.805665153671441 1.2 2 89.888235718062674 8.6291656156531218 2 19.271819811877716 1.2 2 21.496614025053784 8.157023819505099 2 35.120934539963585 8.9434045454217248 2 62.519326609835183 3.3724866884857758 2 88.600345867016003 1.6762068314488066 2 19.253504651706244 8.4890835832001112 2 27.212999983633932 8.8753966464227076 2 35.109539028309776 1.2 2 64.846710649168514 5.3841555890290476 2 89.949844271552777 2.7851830247510185 2 17.46150423138365 1.4991255676608919 2 23.36264320392927 1.2 2 35.159678509627021 4.9829549791967684 2 62.597136639855627 2.1087623339816073 2 86.529885743822334 3.6341181756888625 2 21.322222812848203 1.2 2 23.549386134320116 5.9404637598859535 2 36.706862003698106 3.8036193148930328 2 65.92872288019143 1.2 2 89.37484442640887 5.1910948552264866 2 19.471193603728199 3.0709345863987072 2 22.301854525295504 4.1417529462880065 2 37.19400307701904 9.7861968603260152 2 59.99391604317195 4.8339034223750632 2 88.012392379678275 3.8174575299414606 2 19.856942533141297 4.8220411880509513 2 25.01708232499324 8.8338944738318119 2 36.699559422215629 1.2 2 65.740205072923175 4.0639322949700087 2 89.394688748050285 1.2 2 15.173372527664943 2.6098578575162352 2 24.333691156759023 3.2020669770177994 2 35.37894648354154 3.5539129775530962 2 63.941375561337857 2.1940277945850979 2 85.605137631466476 1.2 2 21.766086789113196 2.6974514941134631 2 25.352395514597152 2.6676150510964538 2 36.652940682199969 5.5230809983757592 2 65.80542033996015 2.3300963486120865 2 88.566109700654849 6.7752082273144403 2 18.271829991168847 1.2 2 20.342142288825293 6.5312408664303137 2 35.266004560638919 6.8265612778810683 2 62.855725350001016 5.2346265027464218 2 87.689177487112602 1.2 2 18.623583219002004 6.5342870372810298 2 26.045263067470554 7.0897172637651868 2 34.642936016035051 2.7232444221910059 2 63.715686877749334 4.0912414714926326 2 89.32249325809164 3.5758801621520413 2 16.421375425149566 1.2 2 24.284987434326087 1.2 2 33.730948060473246 4.7422060712158514 2 62.058369905790464 1.2 2 85.680302240629032 2.9297662695436903 2 22.320758554700546 1.2 2 23.725926077207863 4.4272223305077336 2 37.026519675101014 2.6291005550191611 2 67.050642806818814 1.2 2 90.813825304547223 4.6824258908418139 2 20.549253693718164 2.714793032672822 2 21.947950182802739 5.9842049365992986 2 36.912075532322177 7.7544928687509662 2 61.604090769830847 4.9554834223820068 2 87.455241860751883 2.5667117006651616 2 21.034352353377383 4.4042830363748502 2 23.482834561792021 7.630882086769545 2 37.89755790019786 1.2 2 64.64540549364979 3.1823386966387566 2 90.453301659761735 1.2 2 16.339123548562295 2.4311376905969935 2 23.101608421138533 2.7073011233110318 2 35.929412660873176 1.798238560643489 2 63.587699135893864 1.2 2 86.595842396320776 1.2 2 </DataArray>
</Points>
<Cells>
<DataArray Name="connectivity" format="ascii" type="Int32">0</DataArray>
<DataArray Name="offsets" format="ascii" type="Int32">0</DataArray>
<DataArray Name="types" format="ascii" type="UInt8">1</DataArray>
</Cells>
<PointData>
<DataArray Name="Points" NumberOfComponents="3" format="ascii" type="Float32">20.237719234768871 1.2 2 25.676383778640023 4.4095662339588468 2 37.940662275398147 6.5265735989872615 2 64.805665153671441 1.2 2 89.888235718062674 8.6291656156531218 2 19.271819811877716 1.2 2 21.496614025053784 8.157023819505099 2 35.120934539963585 8.9434045454217248 2 62.519326609835183 3.3724866884857758 2 88.600345867016003 1.6762068314488066 2 19.253504651706244 8.4890835832001112 2 27.212999983633932 8.8753966464227076 2 35.109539028309776 1.2 2 64.846710649168514 5.3841555890290476 2 89.949844271552777 2.7851830247510185 2 17.46150423138365 1.4991255676608919 2 23.36264320392927 1.2 2 35.159678509627021 4.9829549791967684 2 62.597136639855627 2.1087623339816073 2 86.529885743822334 3.6341181756888625 2 21.322222812848203 1.2 2 23.549386134320116 5.9404637598859535 2 36.706862003698106 3.8036193148930328 2 65.92872288019143 1.2 2 89.37484442640887 5.1910948552264866 2 19.471193603728199 3.0709345863987072 2 22.301854525295504 4.1417529462880065 2 37.19400307701904 9.7861968603260152 2 59.99391604317195 4.8339034223750632 2 88.012392379678275 3.8174575299414606 2 19.856942533141297 4.8220411880509513 2 25.01708232499324 8.8338944738318119 2 36.699559422215629 1.2 2 65.740205072923175 4.0639322949700087 2 89.394688748050285 1.2 2 15.173372527664943 2.6098578575162352 2 24.333691156759023 3.2020669770177994 2 35.37894648354154 3.5539129775530962 2 63.941375561337857 2.1940277945850979 2 85.605137631466476 1.2 2 21.766086789113196 2.6974514941134631 2 25.352395514597152 2.6676150510964538 2 36.652940682199969 5.5230809983757592 2 65.80542033996015 2.3300963486120865 2 88.566109700654849 6.7752082273144403 2 18.271829991168847 1.2 2 20.342142288825293 6.5312408664303137 2 35.266004560638919 6.8265612778810683 2 62.855725350001016 5.2346265027464218 2 87.689177487112602 1.2 2 18.623583219002004 6.5342870372810298 2 26.045263067470554 7.0897172637651868 2 34.642936016035051 2.7232444221910059 2 63.715686877749334 4.0912414714926326 2 89.32249325809164 3.5758801621520413 2 16.421375425149566 1.2 2 24.284987434326087 1.2 2 33.730948060473246 4.7422060712158514 2 62.058369905790464 1.2 2 85.680302240629032 2.9297662695436903 2 22.320758554700546 1.2 2 23.725926077207863 4.4272223305077336 2 37.026519675101014 2.6291005550191611 2 67.050642806818814 1.2 2 90.813825304547223 4.6824258908418139 2 20.549253693718164 2.714793032672822 2 21.947950182802739 5.9842049365992986 2 36.912075532322177 7.7544928687509662 2 61.604090769830847 4.9554834223820068 2 87.455241860751883 2.5667117006651616 2 21.034352353377383 4.4042830363748502 2 23.482834561792021 7.630882086769545 2 37.89755790019786 1.2 2 64.64540549364979 3.1823386966387566 2 90.453301659761735 1.2 2 16.339123548562295 2.4311376905969935 2 23.101608421138533 2.7073011233110318 2 35.929412660873176 1.798238560643489 2 63.587699135893864 1.2 2 86.595842396320776 1.2 2 </DataArray>
<DataArray Name="forces" NumberOfComponents="3" format="ascii" type="Float32">0.018067700134966225 -1.3741278563787831 0.0 -0.15197716342068174 0.51070501033228288 0.0 0.030930369344952413 0.47386421876557516 0.0 -0.095408605888413822 -1.8933893528190444 0.0 0.043330880977995895 0.49703962178623079 0.0 0.021746308807670089 -1.2964004310447663 0.0 -0.0078357964656367574 0.58100772692422697 0.0 0.02451637383908517 0.55059885816372367 0.0 0.02928750821655407 0.37233442356963897 0.0 -0.027668217894324831 0.10260060169917136 0.0 -0.0024750725047448102 0.54144529255915175 0.0 -0.08346855734799008 0.51091056941102808 0.0 -0.092255966363735453 -1.6842128334826336 0.0 0.0048304422783008935 0.50695324069324432 0.0 -0.065723549748302412 0.44428994514347686 0.0 -0.22314976341614057 -0.4070953253784228 0.0 -0.02817502610474118 -1.1455050886517955 0.0 -0.017368748256292421 0.44406954929242182 0.0 0.13447956148974272 0.33492215116947172 0.0 0.034798434957483582 0.37577101206361774 0.0 -0.074299122407386925 -1.4780063981606373 0.0 -0.038261952036691721 0.40971854548323705 0.0 0.055403472783858987 0.42019306839694981 0.0 -0.050989997680025781 -1.6186922279344198 0.0 0.023403721401818567 0.36301241284315627 0.0 -0.0016721001654451673 0.32198554582838912 0.0 0.02617510110529736 0.5263568758516517 0.0 0.04526269507001808 0.50968073309717588 0.0 -0.010468539214794292 0.4658245363268475 0.0 -0.038078202806251626 0.41275927203020646 0.0 -0.0015610654560511694 0.37519247988638499 0.0 -0.038370749371611834 0.59952709121349346 0.0 0.1197312846299623 -2.0056605647131525 0.0 0.061502145642275186 0.4167669276677578 0.0 0.086562801056959016 -1.5325310779606509 0.0 0.032222371030316443 0.52773854018851207 0.0 -0.095796250039500985 0.32886696562696416 0.0 0.090968799973027425 0.41800649184816219 0.0 0.14079348516024859 0.51109943720392503 0.0 -0.061875646488380953 -1.4835573735422911 0.0 0.10336260583175472 0.54383683918031478 0.0 0.027197839123392575 0.47145472850613823 0.0 -0.027230910299302871 0.49412439918362472 0.0 0.011634841523124217 0.40689436815118363 0.0 -0.014213362381094607 0.44960765166226568 0.0 0.11430106873634462 -1.4016492453784855 0.0 -0.022750538494184507 0.51039280226648609 0.0 -0.032025492816655288 0.50166040792115807 0.0 -0.06196768858205759 0.52596221079728389 0.0 -0.11018251502542387 -1.6461641753421903 0.0 0.03472627564177333 0.42070416964008606 0.0 -0.049441166181364016 0.48912086805061222 0.0 0.090590466968911487 0.48466877793813162 0.0 -0.054131364957386019 0.55474939313849747 0.0 -0.053080632041000803 0.36945546403298618 0.0 -0.23408397301451492 -1.9550460468619497 0.0 0.048466799284358708 -1.2430108979294103 0.0 -0.05402496223564468 0.46918534951452007 0.0 -0.12509946451289489 -2.0851086696055745 0.0 0.091368248263702934 0.41771227902596053 0.0 -0.07174059898587104 -1.4184044370462412 0.0 -0.0097618058820031495 0.39798871875884528 0.0 -0.092360141152929787 0.43325741477325469 0.0 -0.029310707889346824 -1.5999339167332576 0.0 0.029654614443289817 0.43969300109079712 0.0 0.082489239808613501 0.5399113314425531 0.0 -0.028536032299459654 0.55160212986290669 0.0 -0.0072299222784545092 0.48722656909261503 0.0 -0.036835701723579445 0.45676556341493174 0.0 0.10647894656635959 0.38408863296890028 0.0 -0.009230596070138819 0.5254170912175502 0.0 0.052827830254005795 0.45259974383886509 0.0 0.079633585956161268 -1.789550595654299 0.0 -0.0050196791136168928 0.5487800325939195 0.0 0.042408252372638455 -1.5232036218909264 0.0 0.1156694234346006 0.56196619155808691 0.0 0.026729544852229697 0.31193483366270636 0.0 0.016071293805985487 0.082956318145877297 0.0 -0.11916145565311631 -2.1232911438050239 0.0 -0.072687335694570532 -1.2438972582856653 0.0 </DataArray>
<DataArray Name="radii" format="ascii" type="Float32">1.2 1.2 1.2 1.2 1.2 1.2 1.2 1.2 1.2 1.2 1.2 1.2 1.2 1.2 1.2 1.2 1.2 1.2 1.2 1.2 1.2 1.2 1.2 1.2 1.2 1.2 1.2 1.2 1.2 1.2 1.2 1.2 1.2 1.2 1.2 1.2 1.2 1.2 1.2 1.2 1.2 1.2 1.2 1.2 1.2 1.2 1.2 1.2 1.2 1.2 1.2 1.2 1.2 1.2 1.2 1.2 1.2 1.2 1.2 1.2 1.2 1.2 1.2 1.2 1.2 1.2 1.2 1.2 1.2 1.2 1.2 1.2 1.2 1.2 1.2 1.2 1.2 1.2 1.2 1.2 </DataArray>
</PointData>
<CellData/>
</Piece>
</UnstructuredGrid>
</VTKFile>
