<?xml version="1.0" ?>
<VTKFile byte_order="LittleEndian" type="UnstructuredGrid" version="0.1">
<UnstructuredGrid>
<Piece NumberOfCells="0" NumberOfPoints="16">
<Points>
<DataArray NumberOfComponents="3" format="ascii" type="Float32">1.5999999999999999 1.5999999999999999 2 12.404104885667737 3.7683141914998277 2 26.984028293124425 1.5999999999999999 2 48.352961886858125 1.5999999999999999 2 51.241738086911212 1.5999999999999999 2 74.434847698373673 1.5999999999999999 2 83.216797444636811 1.5999999999999999 2 92.257683067219503 1.5999999999999999 2 4.2924009380229986 3.1529641486722908 2 10.154101529569656 1.5999999999999999 2 30.15337576192362 1.5999999999999999 2 46.921639374876037 4.375094418791714 2 52.785277373959815 4.3907299689892989 2 77.323033952976473 1.5999999999999999 2 84.675508464827544 4.3692270172034577 2 95.297990609112546 1.5999999999999999 2 </DataArray>
</Points>
<Cells>
<DataArray Name="connectivity" format="ascii" type="Int32">0</DataArray>
<DataArray Name="offsets" format="ascii" type="Int32">0</DataArray>
<DataArray Name="types" format="ascii" type="UInt8">1</DataArray>
</Cells>
<PointData>
<DataArray Name="Points" NumberOfComponents="3" format="ascii" type="Float32">1.5999999999999999 1.5999999999999999 2 12.404104885667737 3.7683141914998277 2 26.984028293124425 1.5999999999999999 2 48.352961886858125 1.5999999999999999 2 51.241738086911212 1.5999999999999999 2 74.434847698373673 1.5999999999999999 2 83.216797444636811 1.5999999999999999 2 92.257683067219503 1.5999999999999999 2 4.2924009380229986 3.1529641486722908 2 10.154101529569656 1.5999999999999999 2 30.15337576192362 1.5999999999999999 2 46.921639374876037 4.375094418791714 2 52.785277373959815 4.3907299689892989 2 77.323033952976473 1.5999999999999999 2 84.675508464827544 4.3692270172034577 2 95.297990609112546 1.5999999999999999 2 </DataArray>
<DataArray Name="forces" NumberOfComponents="3" format="ascii" type="Float32">-0.081748711862040163 -0.04716109698266268 0.0 -0.004128023457734907 0.1164586120661058 0.0 -0.16105961972090116 -0.033289147329152134 0.0 0.058474296081352801 -0.1045819169162741 0.0 -0.089670852885433708 -0.043884145725239375 0.0 0.032603122903395065 -0.050548170959767859 0.0 -0.001736204938831365 -0.078928998318524193 0.0 0.025302259717761899 0.0 0.0 0.0040790263533124899 0.091877767639496094 0.0 0.0064687092398872936 -0.10718125131348323 0.0 0.1749169935496562 -0.02234800079962352 0.0 -0.046627131056449111 0.11375930369880909 0.0 -0.019660565976373518 0.12963360814158373 0.0 -0.012013195926570228 -0.069299043445892855 0.0 0.020693693550114526 0.11592938421900287 0.0 0.0059389218492560958 -0.092708664601578034 0.0 </DataArray>
<DataArray Name="radii" format="ascii" type="Float32">1.5999999999999999 1.5999999999999999 1.5999999999999999 1.5999999999999999 1.5999999999999999 1.5999999999999999 1.5999999999999999 1.5999999999999999 1.5999999999999999 1.5999999999999999 1.5999999999999999 1.5999999999999999 1.5999999999999999 1.5999999999999999 1.5999999999999999 1.5999999999999999 </DataArray>
</PointData>
<CellData/>
</Piece>
</UnstructuredGrid>
</VTKFile>
