<?xml version="1.0" ?>
<VTKFile byte_order="LittleEndian" type="UnstructuredGrid" version="0.1">
<UnstructuredGrid>
<Piece NumberOfCells="0" NumberOfPoints="128">
<Points>
<DataArray NumberOfComponents="3" format="ascii" type="Float32">1.4 1.5619287160701916 2 11.205363989827861 2.6175258014898684 2 28.335282361161934 5.1262666871267637 2 47.358175428295183 5.820985030807357 2 52.093398547334616 1.4 2 74.012641386232275 2.0066977955604917 2 84.507863653875219 1.4 2 91.650617966224701 1.4 2 4.0147448978593259 5.9219125834151223 2 12.788053215656737 1.4 2 28.725520269877777 1.4 2 48.903311351284692 7.0350780343913817 2 51.956632383609055 8.2674872863818596 2 76.85250162318944 4.7419289250353795 2 87.78283722746319 8.038934784133053 2 96.044359504791643 3.715137650217943 2 2.6960891233282029 1.4 2 13.169936406290843 8.7873290116174392 2 27.033269317085534 1.4 2 48.385513958792345 1.4 2 52.190510656166794 5.8883128680261825 2 74.558318894270798 6.2475769080823733 2 82.936772055366887 5.7574514198760109 2 92.171515556963826 5.5192712574679392 2 1.4737134612745808 4.1501090822648896 2 8.0959342392872777 1.4 2 29.273766792466123 3.8435657709186577 2 44.314883344911266 6.9375708020515612 2 53.218380803388044 4.6799770720932141 2 75.573657066701756 1.4 2 84.541625176460656 5.6448084331713559 2 93.657170951992171 1.4 2 1.4 1.4 2 12.472747917927522 4.9784248269357088 2 25.127154948306973 5.4220836388018139 2 48.899836645423306 5.3674250229600746 2 51.458785376910761 4.0133247309781455 2 75.149174249406897 3.0576725053368405 2 83.564972354632317 1.4 2 94.455761128630371 4.2618222230308467 2 3.2449028147824297 8.5147891285460684 2 11.353878825970856 1.4 2 27.544437040853325 3.6477391170454667 2 46.292000899275656 6.9671766734946985 2 49.938950780542108 9.0643581072433541 2 78.385737416875358 3.9847768010976337 2 84.597208624024759 7.4140511311780593 2 96.725154358913898 1.4 2 3.8883644362005469 2.7800455333211023 2 10.372309633258839 6.3602853682114953 2 25.172293010400871 1.4 2 51.093688011337051 1.4 2 50.196082639475421 3.3001112169276845 2 76.94391792916295 7.5075503030835824 2 84.473053152049204 3.8638509347704497 2 91.760259305481753 3.7447880920576386 2 1.4 7.5040236298319591 2 8.8978340946292622 1.4 2 29.65958817165123 1.4 2 41.284433590121587 7.2574421217306915 2 55.625669333605757 7.6449541832952681 2 77.5909737521946 1.4 2 87.402904476582975 5.1742301771168311 2 94.653054852392557 1.4 2 1.4 3.1869940989298895 2 12.304973900748685 3.5331454773680031 2 28.071716452944177 6.7731152933807914 2 46.288960926608958 4.4248788162857098 2 52.61792735421519 2.2566069609388566 2 74.657800912140004 1.4 2 84.806299246874772 2.1243162350808724 2 91.297181083040002 2.3655895450398852 2 3.3175841237511103 3.9863569732003663 2 12.335712413476349 1.6207045220822891 2 28.549314708974684 2.8910718297980553 2 47.576053896046709 8.5968008730586902 2 53.587744956683075 7.4567635194212514 2 77.167102464807996 3.489545939139318 2 85.746335518185177 9.0753823697959142 2 96.815027613111596 2.731919770399295 2 3.7543336515547909 1.4 2 10.620781074583331 8.6916681199392762 2 26.697230756824325 2.9944805708401883 2 49.223614001260223 1.4 2 50.493920307139184 4.9483320878524175 2 75.423005046586582 4.3298057605112943 2 82.777919968871771 4.085492741173284 2 90.482588948801265 6.3456766582321187 2 2.7759309731992041 6.0894690235048259 2 9.0527830319079694 3.1173179413822529 2 30.822037985071546 4.0396310756597504 2 43.051948459951923 8.5459747179139676 2 54.090256209260041 5.7936602239563868 2 76.568245593392646 1.4 2 85.681848832741778 4.7107285957708829 2 92.688986895214299 1.4 2 2.5705043158208851 2.5003078980329327 2 11.0378769887632 5.0049362479421751 2 26.944926696671715 5.1380381041443863 2 49.02989742571738 3.8422525565780625 2 52.653828481598822 3.5148957715082383 2 74.227687855768281 3.9783474483949322 2 81.362245241848726 1.5207361567524538 2 94.113350014883252 2.8655310019874269 2 5.1104901590139011 7.6747959443997722 2 10.410594887383446 1.4 2 27.865913763223997 1.4 2 45.293715714956562 9.1422965755020975 2 50.720632903883597 6.6110446529973173 2 78.032667390031278 1.9890920631149247 2 82.862775434838909 7.9261512026147116 2 95.319520261818781 2.4142516786572203 2 4.6066226105514509 4.033760299143573 2 12.149321812670088 6.8666694677271076 2 26.151799135502369 1.4 2 50.050897962527607 1.4 2 50.862427655857985 2.3628158755302113 2 75.864841558602748 6.0768710521453198 2 83.443637267847734 3.2640876426332555 2 92.75225053411468 2.6606175624965109 2 1.4 5.3842274815035198 2 9.668432371834939 1.4 2 30.659201199906825 1.4 2 40.915670976207437 9.5250973704212338 2 54.657645076891235 9.6087628944319352 2 76.362554323072843 2.5047420694267566 2 86.387380469245514 6.5143943435159981 2 95.791825907621941 1.4 2 </DataArray>
</Points>
<Cells>
<DataArray Name="connectivity" format="ascii" type="Int32">0</DataArray>
<DataArray Name="offsets" format="ascii" type="Int32">0</DataArray>
<DataArray Name="types" format="ascii" type="UInt8">1</DataArray>
</Cells>
<PointData>
<DataArray Name="Points" NumberOfComponents="3" format="ascii" type="Float32">1.4 1.5619287160701916 2 11.205363989827861 2.6175258014898684 2 28.335282361161934 5.1262666871267637 2 47.358175428295183 5.820985030807357 2 52.093398547334616 1.4 2 74.012641386232275 2.0066977955604917 2 84.507863653875219 1.4 2 91.650617966224701 1.4 2 4.0147448978593259 5.9219125834151223 2 12.788053215656737 1.4 2 28.725520269877777 1.4 2 48.903311351284692 7.0350780343913817 2 51.956632383609055 8.2674872863818596 2 76.85250162318944 4.7419289250353795 2 87.78283722746319 8.038934784133053 2 96.044359504791643 3.715137650217943 2 2.6960891233282029 1.4 2 13.169936406290843 8.7873290116174392 2 27.033269317085534 1.4 2 48.385513958792345 1.4 2 52.190510656166794 5.8883128680261825 2 74.558318894270798 6.2475769080823733 2 82.936772055366887 5.7574514198760109 2 92.171515556963826 5.5192712574679392 2 1.4737134612745808 4.1501090822648896 2 8.0959342392872777 1.4 2 29.273766792466123 3.8435657709186577 2 44.314883344911266 6.9375708020515612 2 53.218380803388044 4.6799770720932141 2 75.573657066701756 1.4 2 84.541625176460656 5.6448084331713559 2 93.657170951992171 1.4 2 1.4 1.4 2 12.472747917927522 4.9784248269357088 2 25.127154948306973 5.4220836388018139 2 48.899836645423306 5.3674250229600746 2 51.458785376910761 4.0133247309781455 2 75.149174249406897 3.0576725053368405 2 83.564972354632317 1.4 2 94.455761128630371 4.2618222230308467 2 3.2449028147824297 8.5147891285460684 2 11.353878825970856 1.4 2 27.544437040853325 3.6477391170454667 2 46.292000899275656 6.9671766734946985 2 49.938950780542108 9.0643581072433541 2 78.385737416875358 3.9847768010976337 2 84.597208624024759 7.4140511311780593 2 96.725154358913898 1.4 2 3.8883644362005469 2.7800455333211023 2 10.372309633258839 6.3602853682114953 2 25.172293010400871 1.4 2 51.093688011337051 1.4 2 50.196082639475421 3.3001112169276845 2 76.94391792916295 7.5075503030835824 2 84.473053152049204 3.8638509347704497 2 91.760259305481753 3.7447880920576386 2 1.4 7.5040236298319591 2 8.8978340946292622 1.4 2 29.65958817165123 1.4 2 41.284433590121587 7.2574421217306915 2 55.625669333605757 7.6449541832952681 2 77.5909737521946 1.4 2 87.402904476582975 5.1742301771168311 2 94.653054852392557 1.4 2 1.4 3.1869940989298895 2 12.304973900748685 3.5331454773680031 2 28.071716452944177 6.7731152933807914 2 46.288960926608958 4.4248788162857098 2 52.61792735421519 2.2566069609388566 2 74.657800912140004 1.4 2 84.806299246874772 2.1243162350808724 2 91.297181083040002 2.3655895450398852 2 3.3175841237511103 3.9863569732003663 2 12.335712413476349 1.6207045220822891 2 28.549314708974684 2.8910718297980553 2 47.576053896046709 8.5968008730586902 2 53.587744956683075 7.4567635194212514 2 77.167102464807996 3.489545939139318 2 85.746335518185177 9.0753823697959142 2 96.815027613111596 2.731919770399295 2 3.7543336515547909 1.4 2 10.620781074583331 8.6916681199392762 2 26.697230756824325 2.9944805708401883 2 49.223614001260223 1.4 2 50.493920307139184 4.9483320878524175 2 75.423005046586582 4.3298057605112943 2 82.777919968871771 4.085492741173284 2 90.482588948801265 6.3456766582321187 2 2.7759309731992041 6.0894690235048259 2 9.0527830319079694 3.1173179413822529 2 30.822037985071546 4.0396310756597504 2 43.051948459951923 8.5459747179139676 2 54.090256209260041 5.7936602239563868 2 76.568245593392646 1.4 2 85.681848832741778 4.7107285957708829 2 92.688986895214299 1.4 2 2.5705043158208851 2.5003078980329327 2 11.0378769887632 5.0049362479421751 2 26.944926696671715 5.1380381041443863 2 49.02989742571738 3.8422525565780625 2 52.653828481598822 3.5148957715082383 2 74.227687855768281 3.9783474483949322 2 81.362245241848726 1.5207361567524538 2 94.113350014883252 2.8655310019874269 2 5.1104901590139011 7.6747959443997722 2 10.410594887383446 1.4 2 27.865913763223997 1.4 2 45.293715714956562 9.1422965755020975 2 50.720632903883597 6.6110446529973173 2 78.032667390031278 1.9890920631149247 2 82.862775434838909 7.9261512026147116 2 95.319520261818781 2.4142516786572203 2 4.6066226105514509 4.033760299143573 2 12.149321812670088 6.8666694677271076 2 26.151799135502369 1.4 2 50.050897962527607 1.4 2 50.862427655857985 2.3628158755302113 2 75.864841558602748 6.0768710521453198 2 83.443637267847734 3.2640876426332555 2 92.75225053411468 2.6606175624965109 2 1.4 5.3842274815035198 2 9.668432371834939 1.4 2 30.659201199906825 1.4 2 40.915670976207437 9.5250973704212338 2 54.657645076891235 9.6087628944319352 2 76.362554323072843 2.5047420694267566 2 86.387380469245514 6.5143943435159981 2 95.791825907621941 1.4 2 </DataArray>
<DataArray Name="forces" NumberOfComponents="3" format="ascii" type="Float32">-2.9969483752182571 0.63393408160087328 0.0 -0.0007387325108896281 1.4026037872317763 0.0 -0.08157777641723607 1.1884834515346019 0.0 0.0424391601234132 1.0746412838068791 0.0 -0.12282840314794663 -3.1443556181348828 0.0 0.05871499329642621 0.61506979222789726 0.0 0.21024736279616674 -3.3875167319582431 0.0 0.10897206640832402 -3.3618631391571134 0.0 0.11977143900839618 1.0315942705890613 0.0 0.89850764005586004 -3.6763440170504986 0.0 0.079241068801378378 -2.6832550343222215 0.0 0.079431378450640744 0.9649831589233071 0.0 0.10574802603038608 1.1973771347815494 0.0 0.043343818522927138 1.2019061458574032 0.0 0.032505142473959359 0.92218726419553287 0.0 -0.036310270732464282 1.1682735199051493 0.0 0.077945122964541369 -3.2963466229545437 0.0 0.040441264772901747 1.0549069917092151 0.0 -0.085228221107305213 -2.5751657118898335 0.0 0.014236171735263096 -2.5787610852215801 0.0 -0.10038299350325253 1.0493009336999801 0.0 -0.079595067106148054 1.211075482421293 0.0 -0.049305336646518344 0.9917970899674311 0.0 0.059621850868698201 1.0228022702552031 0.0 -1.3605902958210869 0.93272880992095075 0.0 -0.070183143761903821 -2.0505991984720162 0.0 0.073257279713290879 1.0782656361102216 0.0 -0.0062558550157088555 0.97050606012561169 0.0 -0.084719052177766263 1.1876579641223393 0.0 0.024899642910549469 -2.8480970061158928 0.0 -0.1018935779543686 0.88228078542028432 0.0 0.023771994500844107 -2.8287901645224158 0.0 -2.8244051717237362 -4.4810943993864862 0.0 -0.037816486831705631 1.0930551096466115 0.0 0.055847443691712323 0.95877127893823866 0.0 -0.0068093984908327299 1.0504399729264893 0.0 -0.062108447215601159 0.95609213215415334 0.0 0.0022054529192017114 1.174736559608927 0.0 0.37319591282611453 -1.9891095279486803 0.0 0.10144561716796868 1.1141329494135044 0.0 -0.039285223940418668 1.0649222787796577 0.0 0.03514388309935379 -2.9455060710967804 0.0 0.15345864251577906 1.1788806263157512 0.0 0.030062864931911459 1.0019616575064429 0.0 -0.035487498633913511 0.98788201143315268 0.0 -0.0094024590754141352 0.90509018049448431 0.0 0.15098410519212957 0.78905670533212735 0.0 0.0017353182685462265 -2.9208675330829967 0.0 0.17406832162208463 1.3766988717349666 0.0 0.02313736369341779 0.98881247227610181 0.0 -0.10493389490891047 -2.9628188640116231 0.0 -0.042016812247277213 -3.2016589052122013 0.0 0.011722952292202909 1.2062949815619359 0.0 -0.026954841146215824 0.86976437758822123 0.0 -0.1091734598876779 0.92803569231271554 0.0 0.024766706074084266 1.2888441763934129 0.0 -1.1900021657371116 0.93604512264870454 0.0 -0.024133538278761524 -1.7155704371882865 0.0 0.055775465673191693 -3.0822200560682891 0.0 -0.0045849651079365866 0.98325735916460499 0.0 0.062978473048767414 0.98067166666967587 0.0 -0.32207178059027053 -3.6577789500734381 0.0 -0.094133855036766634 1.1857390821960971 0.0 -0.033522802338419311 -2.9941465610909175 0.0 -2.7266952192273397 0.72947758533730389 0.0 0.039555452617642095 0.91108198407751506 0.0 0.0032829913995278681 1.0737034800280034 0.0 0.16819999175484734 1.1236790817248168 0.0 0.12528586787375118 1.103463487132164 0.0 0.1770349159133513 -3.2352961741154189 0.0 0.058167769975118411 1.1445729453015394 0.0 -0.059818603950772875 1.077900298152852 0.0 -0.31051649022337469 1.1732932985428286 0.0 -0.75040155302189837 -0.58757699087037818 0.0 -0.24062999381181985 1.0139021340643397 0.0 0.021496659955813846 0.97371932204797362 0.0 -0.003651699048906068 0.77813133310810401 0.0 -0.03674845393533166 1.1390962503615105 0.0 -0.05336313066830134 1.0326560751952929 0.0 -0.17116813282222609 1.2491469511821189 0.0 -0.15781017591441282 -2.768177865308485 0.0 -0.05403431695402891 1.0858530970574933 0.0 0.095865886038749071 1.1163377537899595 0.0 0.026071699929653414 -2.6562631573801063 0.0 -0.019457931168666374 1.0450502961497306 0.0 -0.047479026494500309 1.0455191048092733 0.0 0.070508142849029953 0.63001613832442072 0.0 0.048555067517904643 1.0132263639485595 0.0 0.14464335679315887 0.91551962265135423 0.0 0.13662414903076325 0.72416463219827587 0.0 0.048433125615144859 0.98331474059176927 0.0 -0.008395890342869694 0.99041755365849649 0.0 0.12074178669972024 0.91246217535867757 0.0 -0.034935264732794125 -3.2261436669069141 0.0 -0.20988876080845625 1.0593345078542535 0.0 0.08010511345949245 -3.0375763499249313 0.0 -0.0001751979474154397 1.3923281106695247 0.0 -0.010182891243925463 1.043482542862082 0.0 -0.074071348373662624 1.0071281998006605 0.0 -0.12728476638069242 1.1374914277545363 0.0 -0.00020464778033427167 1.1613051333294226 0.0 0.038578960659872957 0.96657399320255888 0.0 -0.03388112564324168 -0.66905037771127585 0.0 -0.082443787349730069 1.1765411613502401 0.0 0.016142688741878408 1.1339239253555327 0.0 0.33524261512446452 -2.3058944751771593 0.0 -0.0027984877691042964 -2.4633990312200265 0.0 0.011368139159426804 0.95225437304063021 0.0 0.11228102409048575 1.0369530347908316 0.0 0.29071839465986882 0.61353524154588168 0.0 0.15038937278299855 1.2171288117520007 0.0 -0.12572467047817582 0.99125251121982394 0.0 0.030856031863527578 0.83682756471914377 0.0 0.0060859623299738819 1.1091472849289032 0.0 -0.082923195648848758 -2.6141286415914453 0.0 0.014435923384856886 -2.6944957248693502 0.0 -0.0078865494380130352 1.1361634664556721 0.0 -0.087163536649469242 0.92038645671468433 0.0 -0.27374452831171925 0.74174396129028364 0.0 -0.18826323319733573 1.1837540225860965 0.0 -1.7280499118071977 1.1421135782075997 0.0 -0.061334629503361784 -1.8415384508497668 0.0 -0.074116686797217612 -2.8581067428681157 0.0 -0.045525093767688707 0.99132731592926682 0.0 -0.090493970326245343 0.90519737810135104 0.0 0.12593734776658372 1.1735661896314789 0.0 0.053587443121156209 1.0232804046870165 0.0 0.057592737549157169 -3.2571939301472166 0.0 </DataArray>
<DataArray Name="radii" format="ascii" type="Float32">1.4 1.4 1.4 1.4 1.4 1.4 1.4 1.4 1.4 1.4 1.4 1.4 1.4 1.4 1.4 1.4 1.4 1.4 1.4 1.4 1.4 1.4 1.4 1.4 1.4 1.4 1.4 1.4 1.4 1.4 1.4 1.4 1.4 1.4 1.4 1.4 1.4 1.4 1.4 1.4 1.4 1.4 1.4 1.4 1.4 1.4 1.4 1.4 1.4 1.4 1.4 1.4 1.4 1.4 1.4 1.4 1.4 1.4 1.4 1.4 1.4 1.4 1.4 1.4 1.4 1.4 1.4 1.4 1.4 1.4 1.4 1.4 1.4 1.4 1.4 1.4 1.4 1.4 1.4 1.4 1.4 1.4 1.4 1.4 1.4 1.4 1.4 1.4 1.4 1.4 1.4 1.4 1.4 1.4 1.4 1.4 1.4 1.4 1.4 1.4 1.4 1.4 1.4 1.4 1.4 1.4 1.4 1.4 1.4 1.4 1.4 1.4 1.4 1.4 1.4 1.4 1.4 1.4 1.4 1.4 1.4 1.4 1.4 1.4 1.4 1.4 1.4 1.4 </DataArray>
</PointData>
<CellData/>
</Piece>
</UnstructuredGrid>
</VTKFile>
