<?xml version="1.0" ?>
<VTKFile byte_order="LittleEndian" type="UnstructuredGrid" version="0.1">
<UnstructuredGrid>
<Piece NumberOfCells="0" NumberOfPoints="23">
<Points>
<DataArray NumberOfComponents="3" format="ascii" type="Float32">0 0 0 7.2104834173370778 1.4 2 16.388126353315595 3.7929749938277904 2 31.538334459144924 3.6443383768357349 2 39.7829889042616 4.0874865208771842 2 43.293537379049603 1.4 2 54.437685863732135 1.4 2 60.000452161326969 1.4 2 68.378258442560337 1.4 2 71.145743740818304 1.4 2 80.477783017810566 1.4 2 95.86443731840528 3.6677763107384487 2 8.6314929835574112 3.8503368126858684 2 15.078496061697601 1.4 2 33.228580054791074 1.4 2 40.514734584214963 1.4 2 46.059220525271868 1.4 2 57.220175072890058 1.4 2 60.71651424303824 4.0964520774866857 2 67.479635517594303 4.0420449923749828 2 72.500969666335251 3.8452129135521513 2 78.900060184653753 3.7184347288797084 2 97.53853858849908 1.4 2 </DataArray>
</Points>
<Cells>
<DataArray Name="connectivity" format="ascii" type="Int32">0</DataArray>
<DataArray Name="offsets" format="ascii" type="Int32">0</DataArray>
<DataArray Name="types" format="ascii" type="UInt8">1</DataArray>
</Cells>
<PointData>
<DataArray Name="Points" NumberOfComponents="3" format="ascii" type="Float32">0 0 0 7.2104834173370778 1.4 2 16.388126353315595 3.7929749938277904 2 31.538334459144924 3.6443383768357349 2 39.7829889042616 4.0874865208771842 2 43.293537379049603 1.4 2 54.437685863732135 1.4 2 60.000452161326969 1.4 2 68.378258442560337 1.4 2 71.145743740818304 1.4 2 80.477783017810566 1.4 2 95.86443731840528 3.6677763107384487 2 8.6314929835574112 3.8503368126858684 2 15.078496061697601 1.4 2 33.228580054791074 1.4 2 40.514734584214963 1.4 2 46.059220525271868 1.4 2 57.220175072890058 1.4 2 60.71651424303824 4.0964520774866857 2 67.479635517594303 4.0420449923749828 2 72.500969666335251 3.8452129135521513 2 78.900060184653753 3.7184347288797084 2 97.53853858849908 1.4 2 </DataArray>
<DataArray Name="forces" NumberOfComponents="3" format="ascii" type="Float32">0 0 0 -0.022077034598824492 -0.035387704051835833 0.0 0.00064015847579128738 0.0011126143672192707 0.0 -0.00034916378656797351 0.051315560135793525 0.0 -0.0061365342424115274 0.047509908609736098 0.0 -0.0066404626333707029 0.0 0.0 -0.00015418928636279361 0.0 0.0 -0.0098736251490943155 -0.042226492610942787 0.0 0.0058992461099882446 -0.03794798478004538 0.0 -0.011826193144073117 -0.03451687678755553 0.0 -0.0060900502954142621 -0.045790156126467557 0.0 0.01871421103275947 0.063562105433607782 0.0 -0.013347384810011237 0.062131705583105434 0.0 0.059997558748746183 -0.02927889709024159 0.0 0.011372411484120878 -0.02589518164395483 0.0 -0.0031204324263774553 -0.047307670765851725 0.0 -0.014626578090942265 -0.033206284917312846 0.0 -0.0064873639884837075 0.0 0.0 0.010850473774322715 0.042226492610942787 0.0 -0.009799046217523354 0.040806677616091309 0.0 0.018625663079562749 0.03451687678755553 0.0 -0.016808088864186353 0.066607212072678557 0.0 0.014267328507406196 -0.018762546061361369 0.0 </DataArray>
<DataArray Name="radii" format="ascii" type="Float32">0 1.4 1.4 1.4 1.4 1.4 1.4 1.4 1.4 1.4 1.4 1.4 1.4 1.4 1.4 1.4 1.4 1.4 1.4 1.4 1.4 1.4 1.4 </DataArray>
</PointData>
<CellData/>
</Piece>
</UnstructuredGrid>
</VTKFile>
