<?xml version="1.0" ?>
<VTKFile byte_order="LittleEndian" type="UnstructuredGrid" version="0.1">
<UnstructuredGrid>
<Piece NumberOfCells="0" NumberOfPoints="160">
<Points>
<DataArray NumberOfComponents="3" format="ascii" type="Float32">20.135677317245243 1 2 25.233829311717091 3.9939100295688332 2 37.936848746993377 6.0028037562561467 2 64.895491444409558 1 2 90.178070417037802 8.6463376106134895 2 19.283571862885811 1.5777780582186436 2 21.754657804168893 7.4864817605832625 2 34.339588119381787 8.0866420817418376 2 62.166296941403409 2.9433923003139553 2 88.445817077099079 1 2 19.436035271376721 8.4744105401485115 2 26.84665359579617 8.2112863473622131 2 35.110238139112347 1 2 64.977928758691007 5.0258042078238372 2 89.920802388334806 1 2 17.045116390011433 2.2026112150155086 2 23.921543158201587 1.67902944289151 2 34.907568960346914 4.5099989979959298 2 62.669836008656127 1 2 86.834720263956086 3.5919361123613021 2 20.958968786999261 2.1602444714563962 2 23.326740397865969 5.4265886840448188 2 36.157705454583592 3.8285879971027752 2 65.993695418593873 1 2 89.13227551757528 4.7666762144035069 2 19.515506576721535 3.550469312376499 2 22.410132425751961 3.6548053127034126 2 37.093725687212114 8.5195347489042099 2 59.902293449805036 4.3163645274402089 2 88.490262057457272 3.4034564179009275 2 20.031298692073136 4.3828020231620686 2 24.325921935208374 8.4849315776126648 2 36.250329069007599 1 2 65.569907424359158 3.1376335427803532 2 89.005031530977291 1 2 14.777679244323881 1 2 24.376900857132942 3.5615342067877949 2 35.342069108653348 3.1932740786559917 2 64.345447334118717 1 2 85.541931365054552 1 2 21.818733391511824 2.2675253594975824 2 25.728397035615938 1 2 36.552842706476646 4.7682666401139855 2 65.447045710660262 1 2 88.989427423478247 5.6831923686017145 2 18.626556018873636 2.3643443371166875 2 20.175705329047261 6.1876525806730651 2 35.167138700119892 6.0838106575702859 2 62.742955242265147 4.3352335673837166 2 87.867501671177976 1 2 18.577449832244557 6.1912747127847432 2 26.282934860262831 6.3159977293947565 2 34.447210416127149 1 2 63.304694744189483 3.7504705163602794 2 89.459034517053666 3.8259772978936248 2 16.230819841630826 1.4777035765713291 2 23.883628053801221 1 2 33.3226765532741 4.8828510261952776 2 61.570829683329656 1 2 85.629010297191243 2.9913770860339679 2 22.503001040821985 1.9785085458833549 2 23.593512621002223 3.9833845733485691 2 37.09641575932195 1.7503416397719895 2 66.570434414622866 1 2 90.810198309455657 3.9491993087952855 2 20.69953251409985 1 2 21.579400685774079 4.9190969413357868 2 37.194784499829169 7.0044414587755899 2 61.694871764411054 4.3189659699430258 2 87.571542052854682 1.9950976153722171 2 21.306685907636307 4.0488226473464968 2 23.218677133365436 7.187634917470346 2 38.106079035114476 1 2 64.635872736374537 2.4689693991788255 2 90.514672310684134 1 2 16.778453909466101 1 2 23.20971621491751 2.331206142846991 2 35.681846336075914 1 2 63.805996217652194 1 2 86.711433677451993 1 2 20.280992067639311 2.6199521455499561 2 26.052753427513387 4.9166017826826671 2 38.380186272000266 5.3789735758480859 2 63.896105941903016 2.1574587329530437 2 89.937450168768521 7.331085001457736 2 19.522167290055172 1 2 22.320486802319209 8.8161481014510841 2 35.709290562709967 8.0995697911767461 2 61.5048872118658 3.3967009344910908 2 89.791757370515128 2.2828668372802183 2 18.996481134316632 7.1376715571420668 2 27.342377881377452 6.8198346500090921 2 35.778874601146462 1.9717032292336623 2 65.37569903880248 3.992318910087266 2 89.165988918224031 2.764602130216355 2 18.094753273303805 1 2 23.153634533155447 1 2 35.539709012532441 5.0110329069713515 2 62.11053630526925 1 2 87.83488487983962 4.0232082783988465 2 21.573007407472744 3.0300056815647576 2 22.573027131935138 4.6085825545082466 2 35.991880140666687 2.7058395171220431 2 67.017738272477658 2.0262355457339898 2 90.155673756082592 4.6620085092450561 2 18.643505165312504 3.2104897298023922 2 23.09280789546585 3.1882387505385985 2 38.338308161866159 9.3711315706821701 2 60.15250660366592 3.3703523924711996 2 87.488722567871505 2.7748036712351749 2 20.210354394987 5.2282012694334332 2 24.326838727553977 6.7064030579402774 2 37.516292364334724 1 2 65.8691259962864 5.0536749031247288 2 88.395739583613278 2.3384805420243975 2 13.68140775514158 2.4828207713341159 2 24.864369343081488 2.3155159038082718 2 34.795968397980914 2.4797500893499285 2 63.247340481177382 1 2 86.579328668847964 2.6971010888236129 2 21.239713930821768 1 2 24.113053805192415 2.6478553402760507 2 37.257656063151053 4.1207338892543461 2 65.329645640875682 2.1485722565393148 2 88.686644383470551 7.3833292804880193 2 17.412121850801579 1 2 20.630146508053787 7.2420576726625505 2 36.039508208765575 6.6908111745666874 2 63.85488737225301 4.6250209968770557 2 87.26465145950236 1 2 17.963863169658094 4.8268868930124338 2 25.617986018197335 7.5742204358827676 2 33.798582519389633 1 2 64.491843096226575 3.8064000306942831 2 90.273209855573725 3.1206683309379315 2 15.925516361327158 1 2 25.15200744829313 1 2 34.485006458925774 3.4781957207952767 2 62.863239685074888 2.0277053787182355 2 86.087608280655076 2.0988550838169622 2 21.88056369518651 1 2 24.063415900068044 4.9847254852416061 2 37.334786420168584 2.5856487725301496 2 66.10107442018878 2.3095415828690449 2 91.369041876476814 4.8435739523823269 2 19.619382842447134 2.4180491286628789 2 21.476787099366309 5.8922282441394342 2 36.862447713040872 5.6023107094223166 2 61.969593800853886 5.1440471193949362 2 86.141758194973008 1 2 20.609306544526984 3.4688846093667545 2 22.556448192412212 6.1531497331429739 2 37.947231501383953 2.5731577135356187 2 63.916112823104747 2.9910809172066655 2 89.437647907452174 1.3173248003850975 2 16.383805828098335 2.6123286574718012 2 22.490592349327311 1 2 36.878204353212858 1 2 62.796622296258477 2.6930289316276754 2 85.177534324166785 1.9753524801584113 2 </DataArray>
</Points>
<Cells>
<DataArray Name="connectivity" format="ascii" type="Int32">0</DataArray>
<DataArray Name="offsets" format="ascii" type="Int32">0</DataArray>
<DataArray Name="types" format="ascii" type="UInt8">1</DataArray>
</Cells>
<PointData>
<DataArray Name="Points" NumberOfComponents="3" format="ascii" type="Float32">20.135677317245243 1 2 25.233829311717091 3.9939100295688332 2 37.936848746993377 6.0028037562561467 2 64.895491444409558 1 2 90.178070417037802 8.6463376106134895 2 19.283571862885811 1.5777780582186436 2 21.754657804168893 7.4864817605832625 2 34.339588119381787 8.0866420817418376 2 62.166296941403409 2.9433923003139553 2 88.445817077099079 1 2 19.436035271376721 8.4744105401485115 2 26.84665359579617 8.2112863473622131 2 35.110238139112347 1 2 64.977928758691007 5.0258042078238372 2 89.920802388334806 1 2 17.045116390011433 2.2026112150155086 2 23.921543158201587 1.67902944289151 2 34.907568960346914 4.5099989979959298 2 62.669836008656127 1 2 86.834720263956086 3.5919361123613021 2 20.958968786999261 2.1602444714563962 2 23.326740397865969 5.4265886840448188 2 36.157705454583592 3.8285879971027752 2 65.993695418593873 1 2 89.13227551757528 4.7666762144035069 2 19.515506576721535 3.550469312376499 2 22.410132425751961 3.6548053127034126 2 37.093725687212114 8.5195347489042099 2 59.902293449805036 4.3163645274402089 2 88.490262057457272 3.4034564179009275 2 20.031298692073136 4.3828020231620686 2 24.325921935208374 8.4849315776126648 2 36.250329069007599 1 2 65.569907424359158 3.1376335427803532 2 89.005031530977291 1 2 14.777679244323881 1 2 24.376900857132942 3.5615342067877949 2 35.342069108653348 3.1932740786559917 2 64.345447334118717 1 2 85.541931365054552 1 2 21.818733391511824 2.2675253594975824 2 25.728397035615938 1 2 36.552842706476646 4.7682666401139855 2 65.447045710660262 1 2 88.989427423478247 5.6831923686017145 2 18.626556018873636 2.3643443371166875 2 20.175705329047261 6.1876525806730651 2 35.167138700119892 6.0838106575702859 2 62.742955242265147 4.3352335673837166 2 87.867501671177976 1 2 18.577449832244557 6.1912747127847432 2 26.282934860262831 6.3159977293947565 2 34.447210416127149 1 2 63.304694744189483 3.7504705163602794 2 89.459034517053666 3.8259772978936248 2 16.230819841630826 1.4777035765713291 2 23.883628053801221 1 2 33.3226765532741 4.8828510261952776 2 61.570829683329656 1 2 85.629010297191243 2.9913770860339679 2 22.503001040821985 1.9785085458833549 2 23.593512621002223 3.9833845733485691 2 37.09641575932195 1.7503416397719895 2 66.570434414622866 1 2 90.810198309455657 3.9491993087952855 2 20.69953251409985 1 2 21.579400685774079 4.9190969413357868 2 37.194784499829169 7.0044414587755899 2 61.694871764411054 4.3189659699430258 2 87.571542052854682 1.9950976153722171 2 21.306685907636307 4.0488226473464968 2 23.218677133365436 7.187634917470346 2 38.106079035114476 1 2 64.635872736374537 2.4689693991788255 2 90.514672310684134 1 2 16.778453909466101 1 2 23.20971621491751 2.331206142846991 2 35.681846336075914 1 2 63.805996217652194 1 2 86.711433677451993 1 2 20.280992067639311 2.6199521455499561 2 26.052753427513387 4.9166017826826671 2 38.380186272000266 5.3789735758480859 2 63.896105941903016 2.1574587329530437 2 89.937450168768521 7.331085001457736 2 19.522167290055172 1 2 22.320486802319209 8.8161481014510841 2 35.709290562709967 8.0995697911767461 2 61.5048872118658 3.3967009344910908 2 89.791757370515128 2.2828668372802183 2 18.996481134316632 7.1376715571420668 2 27.342377881377452 6.8198346500090921 2 35.778874601146462 1.9717032292336623 2 65.37569903880248 3.992318910087266 2 89.165988918224031 2.764602130216355 2 18.094753273303805 1 2 23.153634533155447 1 2 35.539709012532441 5.0110329069713515 2 62.11053630526925 1 2 87.83488487983962 4.0232082783988465 2 21.573007407472744 3.0300056815647576 2 22.573027131935138 4.6085825545082466 2 35.991880140666687 2.7058395171220431 2 67.017738272477658 2.0262355457339898 2 90.155673756082592 4.6620085092450561 2 18.643505165312504 3.2104897298023922 2 23.09280789546585 3.1882387505385985 2 38.338308161866159 9.3711315706821701 2 60.15250660366592 3.3703523924711996 2 87.488722567871505 2.7748036712351749 2 20.210354394987 5.2282012694334332 2 24.326838727553977 6.7064030579402774 2 37.516292364334724 1 2 65.8691259962864 5.0536749031247288 2 88.395739583613278 2.3384805420243975 2 13.68140775514158 2.4828207713341159 2 24.864369343081488 2.3155159038082718 2 34.795968397980914 2.4797500893499285 2 63.247340481177382 1 2 86.579328668847964 2.6971010888236129 2 21.239713930821768 1 2 24.113053805192415 2.6478553402760507 2 37.257656063151053 4.1207338892543461 2 65.329645640875682 2.1485722565393148 2 88.686644383470551 7.3833292804880193 2 17.412121850801579 1 2 20.630146508053787 7.2420576726625505 2 36.039508208765575 6.6908111745666874 2 63.85488737225301 4.6250209968770557 2 87.26465145950236 1 2 17.963863169658094 4.8268868930124338 2 25.617986018197335 7.5742204358827676 2 33.798582519389633 1 2 64.491843096226575 3.8064000306942831 2 90.273209855573725 3.1206683309379315 2 15.925516361327158 1 2 25.15200744829313 1 2 34.485006458925774 3.4781957207952767 2 62.863239685074888 2.0277053787182355 2 86.087608280655076 2.0988550838169622 2 21.88056369518651 1 2 24.063415900068044 4.9847254852416061 2 37.334786420168584 2.5856487725301496 2 66.10107442018878 2.3095415828690449 2 91.369041876476814 4.8435739523823269 2 19.619382842447134 2.4180491286628789 2 21.476787099366309 5.8922282441394342 2 36.862447713040872 5.6023107094223166 2 61.969593800853886 5.1440471193949362 2 86.141758194973008 1 2 20.609306544526984 3.4688846093667545 2 22.556448192412212 6.1531497331429739 2 37.947231501383953 2.5731577135356187 2 63.916112823104747 2.9910809172066655 2 89.437647907452174 1.3173248003850975 2 16.383805828098335 2.6123286574718012 2 22.490592349327311 1 2 36.878204353212858 1 2 62.796622296258477 2.6930289316276754 2 85.177534324166785 1.9753524801584113 2 </DataArray>
<DataArray Name="forces" NumberOfComponents="3" format="ascii" type="Float32">-0.017149454900732053 -1.8431187084205727 0.0 0.023245878083465399 0.50470376212845569 0.0 -0.045628130937559644 0.55827532817987502 0.0 0.012596974628157009 -1.7453718119771655 0.0 0.15354026890425215 0.68817368246283617 0.0 0.047128666773656569 0.5437336152198935 0.0 -0.045595967787973868 0.52678287597009765 0.0 -0.11477284024052514 0.6030445332021781 0.0 -0.10115712402534882 0.18129126612638147 0.0 -0.040120637918746982 -1.6516317827669438 0.0 0.1130008304638612 0.80907841529367819 0.0 -0.14155608250750218 0.70152880449420807 0.0 -0.091275265704704456 -1.876167015989272 0.0 0.013874796305163806 0.47462058997578671 0.0 0.042266657764474802 -2.1111146603528468 0.0 0.026811602014134461 0.56603015555202318 0.0 0.1814280545740436 0.60417613647033763 0.0 -0.062936840062978949 0.53166246549745133 0.0 -0.0088713409468573097 -1.7946258584689463 0.0 0.037822117674655265 0.58258184363206633 0.0 -0.098306730175718407 0.33391603478334431 0.0 -0.033896304006429845 0.66160593600899209 0.0 -0.074361142048672141 0.56787584456446394 0.0 -0.018236993870482589 -1.6596399095128334 0.0 -0.031720841756949544 0.5845454746491282 0.0 0.06895234027770869 0.46616699284780089 0.0 0.0019833328821881324 0.51332487662152848 0.0 -0.1079659007687519 0.51093886686526824 0.0 0.049957509327472283 0.54992551481159302 0.0 0.01882772755080353 0.5316810794420761 0.0 0.095935443733318582 0.49964233527477475 0.0 -0.15662381763199951 0.68899236919535545 0.0 -0.012982056976219569 -1.7408918634915798 0.0 -0.014564113441184856 0.45884205092252212 0.0 -0.042254863756375105 -2.1510710982656471 0.0 0.048191749860659439 -1.8616401607328636 0.0 0.044544256493944556 0.53032605019442292 0.0 0.076603139276792076 0.75432337805161254 0.0 0.01104236857477045 -1.6881416115392296 0.0 -0.035737995166720826 -1.7727600036236566 0.0 -0.11635574830797646 0.43754938875214289 0.0 -0.1009561050793224 -1.8033875300924682 0.0 -0.0033884471825003093 0.58132411294241448 0.0 -0.0014713992991683966 -1.7136351860405807 0.0 0.058775791437188474 0.65640876536641368 0.0 0.047740092486965091 0.52762338719849211 0.0 0.0469151208968559 0.61794282208456319 0.0 -0.00019331825052099072 0.57460279563657357 0.0 -0.07059447106521019 0.4301886285962912 0.0 -0.053461261845019259 -1.7128565442579848 0.0 -0.10549069014698589 0.56181198676566879 0.0 0.025041732799588379 0.59317306837534289 0.0 -0.1202454882072157 -2.3094307348051002 0.0 0.028892769672210161 0.46585149624499367 0.0 -0.031390589265523294 0.55857429041160656 0.0 0.034933466469119004 0.54310030428412759 0.0 -0.19767291237253726 -2.5902658896004338 0.0 -0.034741908868886895 0.63643474507956199 0.0 -0.058868544014771151 -1.7866197881996602 0.0 0.1417303411009484 0.42995768202201456 0.0 -0.056206038543396737 0.41577110120267657 0.0 0.034372473847988694 0.56359781656683827 0.0 -0.10640355238129698 0.52461169507901939 0.0 -0.028468609036490788 -1.7606467207831509 0.0 0.032647243628073336 0.44663218897433182 0.0 0.063673686131328289 -1.6840092780820028 0.0 -0.043076948331870424 0.56979723418131778 0.0 0.025354468125143137 0.57989876836083565 0.0 0.10873670800204664 0.45398422622198797 0.0 -0.031393080664543618 0.45677888367112579 0.0 0.077297425054279278 0.46495064016088017 0.0 0.047984308819827126 0.76155325140754127 0.0 -0.058463948291128297 -1.915003563689637 0.0 0.032261953535875104 0.43401235795300841 0.0 0.064558783916890072 -1.9212547298722793 0.0 0.023887443389066676 -2.4087511410325773 0.0 -0.047321607044437664 0.52780085095633533 0.0 -0.047058932543601273 -1.9148072654099311 0.0 0.014348108589830403 -1.6469778096995689 0.0 -0.032167007349168664 -1.6103995445917301 0.0 0.1901435279284896 0.23035383203647086 0.0 -0.0053184201753405788 0.54563401397521538 0.0 -0.070241309417589326 0.59930941709060037 0.0 0.00059456597224993857 0.30874943356589868 0.0 0.034844481085220369 0.53193297143397378 0.0 -0.096286483285354718 -2.5158679060202793 0.0 0.15293065081572321 0.63488174709571144 0.0 -0.15205932353578361 0.47748473288263926 0.0 -0.014939279202541567 0.60036977663133628 0.0 0.018933810130124629 0.34865410952460052 0.0 0.0099262065664666443 0.58584277814611485 0.0 -0.048426659470861833 0.53387328663094613 0.0 -0.14120514865550132 0.36555113574302345 0.0 0.010385640766877591 0.42829712355198168 0.0 -0.036715192499620797 0.40684866373602374 0.0 -0.022515912640614477 -2.4524951818197671 0.0 0.046988766782682045 -2.2089254906754539 0.0 -0.065950441620334643 0.60585355603282987 0.0 -0.037286431024668165 -1.5750185470613547 0.0 -0.081964597378836254 0.47766970688182375 0.0 -0.01847551007717918 0.47885159158347479 0.0 0.029003498485190207 0.50888979484336461 0.0 -0.0046013792058826122 0.28114040298600201 0.0 0.029284334400429102 0.35970671623334383 0.0 -0.011152139222654789 0.40350660111379838 0.0 0.029358956329765998 0.59792046603533611 0.0 -0.0057227151383514308 0.4540543022829111 0.0 -0.038161425614092581 0.59124152929140317 0.0 0.070231186797359069 0.48113762045926095 0.0 0.050117558426755471 0.42276825220740699 0.0 -0.058506834752548219 0.66459973079985513 0.0 0.0087149217968036097 0.51096993060259555 0.0 -0.048731877422890646 -2.006594146375337 0.0 -0.025297113688095132 0.53501694876261019 0.0 0.10596469068084341 0.40260747082100623 0.0 -0.12814521190764383 0.34738000551013759 0.0 0.052798807329238806 0.41415398304321627 0.0 0.15915794940438918 0.51680257071570157 0.0 0.00063952503147306217 -1.6983980113493453 0.0 0.14580814808904971 0.28959186695240624 0.0 0.13449419271690255 -1.6746992080297574 0.0 -0.030151784759885336 0.45300420677980857 0.0 -0.041385475360894333 0.44330753443365806 0.0 0.015679849980385074 0.42219468582726838 0.0 -0.063639458198251786 0.94130250432156126 0.0 0.052347208814108592 -2.335338845649769 0.0 -0.15455218171018037 0.76858266840885947 0.0 0.0076503811766684415 0.58686919922504754 0.0 -0.086901106022875318 0.46158943975048961 0.0 0.01023294578744971 -1.7410562518551389 0.0 -0.037737453744305871 0.44685786017354412 0.0 -0.10944275013292182 0.64397805936897257 0.0 -0.017145901872998748 -2.1990783929790183 0.0 -0.054596134676369257 0.48971056620706493 0.0 -0.15660280863805784 0.44472163294303035 0.0 0.10481250129612649 -2.4318549299332348 0.0 -0.096669617422300069 -1.7161364183009471 0.0 -0.10782980513469234 0.4882478674215211 0.0 -0.18008340629857303 0.3325037034528382 0.0 0.045899040762127363 0.37495675180394583 0.0 0.14552139166262568 -1.9325172585688215 0.0 -0.02816036676606104 0.52665194725081332 0.0 -0.068545415146564981 0.47129736950647089 0.0 0.007502648908673748 0.39159649889561043 0.0 -0.0083880525904934111 0.40230342071908415 0.0 -0.0073377857229433019 0.51348947489150132 0.0 0.059251047247597777 0.61733427629116155 0.0 -0.03795235064661201 0.54172842943315525 0.0 -0.020507373661786676 0.62438703707878451 0.0 -0.062914562996136847 -1.7334163214569465 0.0 -0.12813990795992236 0.66861346618387429 0.0 0.039197300641075628 0.62972044478196998 0.0 -0.010871998854995901 0.36676703487786744 0.0 0.0001320459422913256 0.30839989317406591 0.0 0.0075808532471928923 0.27752332063761609 0.0 -0.12926571026187772 0.37672735284829345 0.0 0.11361392545231963 -2.1891760214848981 0.0 0.017060296016987907 -2.0420501187774143 0.0 0.29104706052981255 0.59220781551784218 0.0 0.020397863898116819 0.50116203390534364 0.0 </DataArray>
<DataArray Name="radii" format="ascii" type="Float32">1 1 1 1 1 1 1 1 1 1 1 1 1 1 1 1 1 1 1 1 1 1 1 1 1 1 1 1 1 1 1 1 1 1 1 1 1 1 1 1 1 1 1 1 1 1 1 1 1 1 1 1 1 1 1 1 1 1 1 1 1 1 1 1 1 1 1 1 1 1 1 1 1 1 1 1 1 1 1 1 1 1 1 1 1 1 1 1 1 1 1 1 1 1 1 1 1 1 1 1 1 1 1 1 1 1 1 1 1 1 1 1 1 1 1 1 1 1 1 1 1 1 1 1 1 1 1 1 1 1 1 1 1 1 1 1 1 1 1 1 1 1 1 1 1 1 1 1 1 1 1 1 1 1 1 1 1 1 1 1 </DataArray>
</PointData>
<CellData/>
</Piece>
</UnstructuredGrid>
</VTKFile>
