<?xml version="1.0" ?>
<VTKFile byte_order="LittleEndian" type="UnstructuredGrid" version="0.1">
<UnstructuredGrid>
<Piece NumberOfCells="0" NumberOfPoints="10">
<Points>
<DataArray NumberOfComponents="3" format="ascii" type="Float32">20.842312930550364 1.5999999999999999 2 25.495981323972345 4.3256009780093567 2 36.247204731322967 1.5999999999999999 2 65.720564764800855 1.5999999999999999 2 89.226557196287885 1.5999999999999999 2 17.796623768833502 1.5999999999999999 2 23.980023905409507 1.5999999999999999 2 37.238119869803285 4.5290910246627014 2 62.863413050681537 1.5999999999999999 2 86.230746719052846 1.5999999999999999 2 </DataArray>
</Points>
<Cells>
<DataArray Name="connectivity" format="ascii" type="Int32">0</DataArray>
<DataArray Name="offsets" format="ascii" type="Int32">0</DataArray>
<DataArray Name="types" format="ascii" type="UInt8">1</DataArray>
</Cells>
<PointData>
<DataArray Name="Points" NumberOfComponents="3" format="ascii" type="Float32">20.842312930550364 1.5999999999999999 2 25.495981323972345 4.3256009780093567 2 36.247204731322967 1.5999999999999999 2 65.720564764800855 1.5999999999999999 2 89.226557196287885 1.5999999999999999 2 17.796623768833502 1.5999999999999999 2 23.980023905409507 1.5999999999999999 2 37.238119869803285 4.5290910246627014 2 62.863413050681537 1.5999999999999999 2 86.230746719052846 1.5999999999999999 2 </DataArray>
<DataArray Name="forces" NumberOfComponents="3" format="ascii" type="Float32">-0.081028144671897451 0.0 0.0 0.00089488474227021608 0.068210792874451615 0.0 0.13320041901396976 -0.075145039218002876 0.0 -0.016087054109950052 -0.063882086997302689 0.0 0.016467948391152731 0.0 0.0 0.033125872606400368 -0.081365249814514845 0.0 0.10751162159731656 -0.034921645545299473 0.0 0.026902536004169666 0.075145039218002876 0.0 0.011691000238961243 -0.056438640790342109 0.0 0.040601021753724889 -0.037000385900478668 0.0 </DataArray>
<DataArray Name="radii" format="ascii" type="Float32">1.5999999999999999 1.5999999999999999 1.5999999999999999 1.5999999999999999 1.5999999999999999 1.5999999999999999 1.5999999999999999 1.5999999999999999 1.5999999999999999 1.5999999999999999 </DataArray>
</PointData>
<CellData/>
</Piece>
</UnstructuredGrid>
</VTKFile>
