<?xml version="1.0" ?>
<VTKFile byte_order="LittleEndian" type="UnstructuredGrid" version="0.1">
<UnstructuredGrid>
<Piece NumberOfCells="0" NumberOfPoints="10">
<Points>
<DataArray NumberOfComponents="3" format="ascii" type="Float32">20.598350741344255 1.2959898200653479 2 24.615176112011859 1.8767955641510048 2 35.691112833117231 1.0295111374755375 2 64.52018519906845 2.6226022836648033 2 88.434267023920427 1.1740692712302663 2 18.504297063357964 1.7551821173358924 2 22.818519727600918 1 2 36.925320836769608 2.6060373246563273 2 63.350048689773622 1 2 86.699083778679622 2.1729903494851941 2 </DataArray>
</Points>
<Cells>
<DataArray Name="connectivity" format="ascii" type="Int32">0</DataArray>
<DataArray Name="offsets" format="ascii" type="Int32">0</DataArray>
<DataArray Name="types" format="ascii" type="UInt8">1</DataArray>
</Cells>
<PointData>
<DataArray Name="Points" NumberOfComponents="3" format="ascii" type="Float32">20.598350741344255 1.2959898200653479 2 24.615176112011859 1.8767955641510048 2 35.691112833117231 1.0295111374755375 2 64.52018519906845 2.6226022836648033 2 88.434267023920427 1.1740692712302663 2 18.504297063357964 1.7551821173358924 2 22.818519727600918 1 2 36.925320836769608 2.6060373246563273 2 63.350048689773622 1 2 86.699083778679622 2.1729903494851941 2 </DataArray>
<DataArray Name="forces" NumberOfComponents="3" format="ascii" type="Float32">0.022480392476521265 -0.0048718972023899122 0.0 0.0 0.0 0.0 0.0 0.0 0.0 0.0012569340999612833 0.0017648942518273254 0.0 0.0 0.0 0.0 -0.013917252387934436 0.0042242019383154457 0.0 0.0 0.0 0.0 0.0 0.0 0.0 -0.0012569340999612833 -0.0017648942518273254 0.0 0.0 0.0 0.0 </DataArray>
<DataArray Name="radii" format="ascii" type="Float32">1 1 1 1 1 1 1 1 1 1 </DataArray>
</PointData>
<CellData/>
</Piece>
</UnstructuredGrid>
</VTKFile>
