<?xml version="1.0" ?>
<VTKFile byte_order="LittleEndian" type="UnstructuredGrid" version="0.1">
<UnstructuredGrid>
<Piece NumberOfCells="0" NumberOfPoints="64">
<Points>
<DataArray NumberOfComponents="3" format="ascii" type="Float32">1.5999999999999999 2.8073205569609181 2 11.393803378402527 3.2253339359588273 2 28.173474193569071 5.2345122446480712 2 47.024048617301474 5.0604214802830336 2 52.422683314975878 1.5999999999999999 2 74.360657653451952 1.5999999999999999 2 84.484477334263616 1.5999999999999999 2 91.834226807001173 1.5999999999999999 2 3.8033541786067588 5.2365827043866844 2 12.559315225810709 1.5999999999999999 2 28.546549708803486 1.5999999999999999 2 48.156375515934336 7.5462789864377022 2 52.822090425488973 7.8484946636217927 2 76.649930293196661 4.2030903025015789 2 86.565430897745046 7.8432784259872488 2 96.03428683427461 3.4112737231500168 2 3.6216363938583243 1.5999999999999999 2 12.288220930011752 7.9799546146971592 2 26.631865039321529 1.5999999999999999 2 48.875248458250176 1.5999999999999999 2 51.424603154333447 5.385689461438453 2 74.903036999744728 5.1856258554435986 2 82.742551739146549 5.2681970031173435 2 91.751491647110669 5.3723337428681575 2 1.5999999999999999 4.6386917869706954 2 8.3038925340900374 2.5759346152259153 2 29.674479160166044 4.0085235562364154 2 43.726778595910531 7.6115447857756875 2 53.787063254560024 5.5252496063624346 2 75.877936701996489 1.5999999999999999 2 85.125227786606331 5.4950271487268649 2 93.519138470580202 1.5999999999999999 2 1.5999999999999999 1.5999999999999999 2 12.345638142406907 5.0568387634540324 2 25.953258624581768 5.493283172143248 2 49.238092794773543 5.1863665684485856 2 51.79475591772588 3.5742444232827015 2 74.607527506893973 3.2710619667500054 2 82.693789964635357 1.5999999999999999 2 94.0407107369371 3.5021441540939118 2 4.0319500159654291 8.0226856887417419 2 10.936485922334239 1.5999999999999999 2 27.816310686100636 3.0466106667227204 2 45.957210221996569 7.5953361797635628 2 50.416202388785102 7.7845740253729252 2 78.043047658705547 3.6302568079860578 2 83.715512191514762 7.8114104005300842 2 96.614313788802107 1.5999999999999999 2 3.7026042039498703 3.2946359378726093 2 10.330746232749297 6.4301859632769673 2 25.093288488532057 1.5999999999999999 2 50.862355940488364 1.5999999999999999 2 49.98409893795845 3.0390523673117555 2 76.55229400095206 7.0311450374826805 2 84.074876186742699 3.4072293970981558 2 91.997590566783074 3.3641699179980229 2 1.5999999999999999 6.9881734325287264 2 9.3105820023012349 1.5999999999999999 2 30.077942151849005 1.5999999999999999 2 41.411309741310362 7.9488365853484906 2 55.393390262300166 7.8919071861036869 2 77.190286004272409 1.5999999999999999 2 87.560372401165736 5.4601352353407435 2 95.095030259801334 1.5999999999999999 2 </DataArray>
</Points>
<Cells>
<DataArray Name="connectivity" format="ascii" type="Int32">0</DataArray>
<DataArray Name="offsets" format="ascii" type="Int32">0</DataArray>
<DataArray Name="types" format="ascii" type="UInt8">1</DataArray>
</Cells>
<PointData>
<DataArray Name="Points" NumberOfComponents="3" format="ascii" type="Float32">1.5999999999999999 2.8073205569609181 2 11.393803378402527 3.2253339359588273 2 28.173474193569071 5.2345122446480712 2 47.024048617301474 5.0604214802830336 2 52.422683314975878 1.5999999999999999 2 74.360657653451952 1.5999999999999999 2 84.484477334263616 1.5999999999999999 2 91.834226807001173 1.5999999999999999 2 3.8033541786067588 5.2365827043866844 2 12.559315225810709 1.5999999999999999 2 28.546549708803486 1.5999999999999999 2 48.156375515934336 7.5462789864377022 2 52.822090425488973 7.8484946636217927 2 76.649930293196661 4.2030903025015789 2 86.565430897745046 7.8432784259872488 2 96.03428683427461 3.4112737231500168 2 3.6216363938583243 1.5999999999999999 2 12.288220930011752 7.9799546146971592 2 26.631865039321529 1.5999999999999999 2 48.875248458250176 1.5999999999999999 2 51.424603154333447 5.385689461438453 2 74.903036999744728 5.1856258554435986 2 82.742551739146549 5.2681970031173435 2 91.751491647110669 5.3723337428681575 2 1.5999999999999999 4.6386917869706954 2 8.3038925340900374 2.5759346152259153 2 29.674479160166044 4.0085235562364154 2 43.726778595910531 7.6115447857756875 2 53.787063254560024 5.5252496063624346 2 75.877936701996489 1.5999999999999999 2 85.125227786606331 5.4950271487268649 2 93.519138470580202 1.5999999999999999 2 1.5999999999999999 1.5999999999999999 2 12.345638142406907 5.0568387634540324 2 25.953258624581768 5.493283172143248 2 49.238092794773543 5.1863665684485856 2 51.79475591772588 3.5742444232827015 2 74.607527506893973 3.2710619667500054 2 82.693789964635357 1.5999999999999999 2 94.0407107369371 3.5021441540939118 2 4.0319500159654291 8.0226856887417419 2 10.936485922334239 1.5999999999999999 2 27.816310686100636 3.0466106667227204 2 45.957210221996569 7.5953361797635628 2 50.416202388785102 7.7845740253729252 2 78.043047658705547 3.6302568079860578 2 83.715512191514762 7.8114104005300842 2 96.614313788802107 1.5999999999999999 2 3.7026042039498703 3.2946359378726093 2 10.330746232749297 6.4301859632769673 2 25.093288488532057 1.5999999999999999 2 50.862355940488364 1.5999999999999999 2 49.98409893795845 3.0390523673117555 2 76.55229400095206 7.0311450374826805 2 84.074876186742699 3.4072293970981558 2 91.997590566783074 3.3641699179980229 2 1.5999999999999999 6.9881734325287264 2 9.3105820023012349 1.5999999999999999 2 30.077942151849005 1.5999999999999999 2 41.411309741310362 7.9488365853484906 2 55.393390262300166 7.8919071861036869 2 77.190286004272409 1.5999999999999999 2 87.560372401165736 5.4601352353407435 2 95.095030259801334 1.5999999999999999 2 </DataArray>
<DataArray Name="forces" NumberOfComponents="3" format="ascii" type="Float32">-1.745591275237921 0.82371539766801383 0.0 -0.046391284883290085 1.0452217199978091 0.0 -0.028719561561168089 0.93576039485961404 0.0 0.0023495859610301872 0.8757526302359957 0.0 -0.07640201556298265 -2.1744180414055876 0.0 -0.072393282079199761 -1.7289447009266408 0.0 0.044007426807304295 -2.1943060414095621 0.0 -0.027849292401107673 -1.9900311363761483 0.0 -0.0034301588783380854 0.98540724225934861 0.0 -0.019168638852292808 -1.959668214557551 0.0 0.01477591287783353 -1.9052920764872183 0.0 0.020334981472983849 0.85739426060307389 0.0 0.085893408510759994 0.96391424015412974 0.0 -0.059899298295897803 0.7471905172345632 0.0 0.11145299686416141 0.97277486041254591 0.0 -0.012753443526404951 0.86195847710350648 0.0 0.02795750153036819 -2.3607485737865295 0.0 0.055319660649283758 0.97131667817498057 0.0 0.0011397619138780943 -2.1595114562663351 0.0 0.054474903588813017 -2.672717036761814 0.0 0.080794415718545648 0.97210776006093202 0.0 -0.084057520185494283 1.0125226952310222 0.0 0.046838189674397013 0.96287793070258776 0.0 -0.020499587396714342 0.9352260718344344 0.0 -1.4810903814601735 0.81864537075007804 0.0 -0.010755387468485811 0.59452042564985397 0.0 -0.05392966625533957 0.90453361419348022 0.0 -0.03523873876575323 0.94183116230511787 0.0 0.17477323302985082 1.0121591426514405 0.0 0.0064018412413009429 -1.4864406542920243 0.0 0.08472015543888356 0.97804296833077187 0.0 -0.052189141753563373 -1.9076915206793876 0.0 -1.5729308068412184 -2.4685304652693465 0.0 -0.018633797315340206 0.91706602238084289 0.0 -0.047361658145392171 0.9511153998687768 0.0 0.052702996938162772 0.91591971010132756 0.0 0.0065159469218047938 1.0123479187397493 0.0 0.20552277737883862 0.83241859590620282 0.0 0.094531189629869727 -2.2409527125683004 0.0 0.0082260334436600191 0.9303467223305103 0.0 0.030348249668885552 1.069896090440851 0.0 0.14979415983406508 -2.0453685350996116 0.0 -0.036499969005179378 0.87398872965217389 0.0 0.0037508006582905318 0.93433153513990375 0.0 0.042167086938168369 0.94255571046551268 0.0 -0.023664986869405991 0.94978548200988933 0.0 0.063253852980762804 0.97138401230644988 0.0 -0.051953600642187903 -1.8232889119183309 0.0 0.051585916392845155 0.89910248429424144 0.0 0.044353276940600317 0.91470915906113714 0.0 0.036015019162467521 -2.0479202205177738 0.0 0.033465869033835666 -2.2965140933856625 0.0 -0.0093314014632652764 0.84130358484382728 0.0 0.048409893842749741 0.75541179438471551 0.0 0.0072092172292133605 0.91930115546109192 0.0 0.04241276309409403 0.8956474788608384 0.0 -0.8171147249137416 0.87279001120734134 0.0 0.16761599653913661 -2.2559985143604728 0.0 0.0081657418357882205 -1.9567067927727853 0.0 -0.081811156365957691 0.94945663052871665 0.0 0.12382664882083994 1.0760380066124502 0.0 0.060462851094809367 -1.6510910610115566 0.0 0.077095156053391387 0.93510293498924446 0.0 -0.094040373792365628 -1.9302806907273824 0.0 </DataArray>
<DataArray Name="radii" format="ascii" type="Float32">1.5999999999999999 1.5999999999999999 1.5999999999999999 1.5999999999999999 1.5999999999999999 1.5999999999999999 1.5999999999999999 1.5999999999999999 1.5999999999999999 1.5999999999999999 1.5999999999999999 1.5999999999999999 1.5999999999999999 1.5999999999999999 1.5999999999999999 1.5999999999999999 1.5999999999999999 1.5999999999999999 1.5999999999999999 1.5999999999999999 1.5999999999999999 1.5999999999999999 1.5999999999999999 1.5999999999999999 1.5999999999999999 1.5999999999999999 1.5999999999999999 1.5999999999999999 1.5999999999999999 1.5999999999999999 1.5999999999999999 1.5999999999999999 1.5999999999999999 1.5999999999999999 1.5999999999999999 1.5999999999999999 1.5999999999999999 1.5999999999999999 1.5999999999999999 1.5999999999999999 1.5999999999999999 1.5999999999999999 1.5999999999999999 1.5999999999999999 1.5999999999999999 1.5999999999999999 1.5999999999999999 1.5999999999999999 1.5999999999999999 1.5999999999999999 1.5999999999999999 1.5999999999999999 1.5999999999999999 1.5999999999999999 1.5999999999999999 1.5999999999999999 1.5999999999999999 1.5999999999999999 1.5999999999999999 1.5999999999999999 1.5999999999999999 1.5999999999999999 1.5999999999999999 1.5999999999999999 </DataArray>
</PointData>
<CellData/>
</Piece>
</UnstructuredGrid>
</VTKFile>
