<?xml version="1.0" ?>
<VTKFile byte_order="LittleEndian" type="UnstructuredGrid" version="0.1">
<UnstructuredGrid>
<Piece NumberOfCells="0" NumberOfPoints="10">
<Points>
<DataArray NumberOfComponents="3" format="ascii" type="Float32">20.667875454455448 1.2 2 25.125649290390072 2.5209774730099386 2 35.764026512955368 1.2 2 64.911904430275854 2.5989032456859982 2 88.782640607276591 1.2 2 18.140578818959074 1.2 2 22.975516108360814 1.2 2 37.231225636352583 3.1896503667687219 2 62.958329458566226 1.2 2 86.439420623456257 1.8390833538449129 2 </DataArray>
</Points>
<Cells>
<DataArray Name="connectivity" format="ascii" type="Int32">0</DataArray>
<DataArray Name="offsets" format="ascii" type="Int32">0</DataArray>
<DataArray Name="types" format="ascii" type="UInt8">1</DataArray>
</Cells>
<PointData>
<DataArray Name="Points" NumberOfComponents="3" format="ascii" type="Float32">20.667875454455448 1.2 2 25.125649290390072 2.5209774730099386 2 35.764026512955368 1.2 2 64.911904430275854 2.5989032456859982 2 88.782640607276591 1.2 2 18.140578818959074 1.2 2 22.975516108360814 1.2 2 37.231225636352583 3.1896503667687219 2 62.958329458566226 1.2 2 86.439420623456257 1.8390833538449129 2 </DataArray>
<DataArray Name="forces" NumberOfComponents="3" format="ascii" type="Float32">0.051487392917463293 0.0 0.0 0.057597307068486134 0.037722160393440653 0.0 -0.039028968523956056 -0.056095047470968801 0.0 0.0066931544548886994 0.0048963123995597784 0.0 0.014186237968900187 -0.0040638518992617079 0.0 -0.051487392917463293 0.0 0.0 -0.057597307068486134 -0.037722160393440653 0.0 0.039028968523956056 0.056095047470968801 0.0 -0.0066931544548886994 -0.0048963123995597784 0.0 -0.01425913146956638 0.0040638518992617079 0.0 </DataArray>
<DataArray Name="radii" format="ascii" type="Float32">1.2 1.2 1.2 1.2 1.2 1.2 1.2 1.2 1.2 1.2 </DataArray>
</PointData>
<CellData/>
</Piece>
</UnstructuredGrid>
</VTKFile>
